<?xml version="1.0"?>
<VTKFile type="UnstructuredGrid">
  <UnstructuredGrid>
  <Piece NumberOfPoints="961"  NumberOfCells="225">
    <Points>
      <DataArray type="Float64" NumberOfComponents="3" format="ascii">
0 0 0
0.0333333 0 0
0.0666667 0 0
0.1 0 0
0.133333 0 0
0.166667 0 0
0.2 0 0
0.233333 0 0
0.266667 0 0
0.3 0 0
0.333333 0 0
0.366667 0 0
0.4 0 0
0.433333 0 0
0.466667 0 0
0.5 0 0
0.533333 0 0
0.566667 0 0
0.6 0 0
0.633333 0 0
0.666667 0 0
0.7 0 0
0.733333 0 0
0.766667 0 0
0.8 0 0
0.833333 0 0
0.866667 0 0
0.9 0 0
0.933333 0 0
0.966667 0 0
1 0 0
0 0.0333333 0
0.0333333 0.0333333 0
0.0666667 0.0333333 0
0.1 0.0333333 0
0.133333 0.0333333 0
0.166667 0.0333333 0
0.2 0.0333333 0
0.233333 0.0333333 0
0.266667 0.0333333 0
0.3 0.0333333 0
0.333333 0.0333333 0
0.366667 0.0333333 0
0.4 0.0333333 0
0.433333 0.0333333 0
0.466667 0.0333333 0
0.5 0.0333333 0
0.533333 0.0333333 0
0.566667 0.0333333 0
0.6 0.0333333 0
0.633333 0.0333333 0
0.666667 0.0333333 0
0.7 0.0333333 0
0.733333 0.0333333 0
0.766667 0.0333333 0
0.8 0.0333333 0
0.833333 0.0333333 0
0.866667 0.0333333 0
0.9 0.0333333 0
0.933333 0.0333333 0
0.966667 0.0333333 0
1 0.0333333 0
0 0.0666667 0
0.0333333 0.0666667 0
0.0666667 0.0666667 0
0.1 0.0666667 0
0.133333 0.0666667 0
0.166667 0.0666667 0
0.2 0.0666667 0
0.233333 0.0666667 0
0.266667 0.0666667 0
0.3 0.0666667 0
0.333333 0.0666667 0
0.366667 0.0666667 0
0.4 0.0666667 0
0.433333 0.0666667 0
0.466667 0.0666667 0
0.5 0.0666667 0
0.533333 0.0666667 0
0.566667 0.0666667 0
0.6 0.0666667 0
0.633333 0.0666667 0
0.666667 0.0666667 0
0.7 0.0666667 0
0.733333 0.0666667 0
0.766667 0.0666667 0
0.8 0.0666667 0
0.833333 0.0666667 0
0.866667 0.0666667 0
0.9 0.0666667 0
0.933333 0.0666667 0
0.966667 0.0666667 0
1 0.0666667 0
0 0.1 0
0.0333333 0.1 0
0.0666667 0.1 0
0.1 0.1 0
0.133333 0.1 0
0.166667 0.1 0
0.2 0.1 0
0.233333 0.1 0
0.266667 0.1 0
0.3 0.1 0
0.333333 0.1 0
0.366667 0.1 0
0.4 0.1 0
0.433333 0.1 0
0.466667 0.1 0
0.5 0.1 0
0.533333 0.1 0
0.566667 0.1 0
0.6 0.1 0
0.633333 0.1 0
0.666667 0.1 0
0.7 0.1 0
0.733333 0.1 0
0.766667 0.1 0
0.8 0.1 0
0.833333 0.1 0
0.866667 0.1 0
0.9 0.1 0
0.933333 0.1 0
0.966667 0.1 0
1 0.1 0
0 0.133333 0
0.0333333 0.133333 0
0.0666667 0.133333 0
0.1 0.133333 0
0.133333 0.133333 0
0.166667 0.133333 0
0.2 0.133333 0
0.233333 0.133333 0
0.266667 0.133333 0
0.3 0.133333 0
0.333333 0.133333 0
0.366667 0.133333 0
0.4 0.133333 0
0.433333 0.133333 0
0.466667 0.133333 0
0.5 0.133333 0
0.533333 0.133333 0
0.566667 0.133333 0
0.6 0.133333 0
0.633333 0.133333 0
0.666667 0.133333 0
0.7 0.133333 0
0.733333 0.133333 0
0.766667 0.133333 0
0.8 0.133333 0
0.833333 0.133333 0
0.866667 0.133333 0
0.9 0.133333 0
0.933333 0.133333 0
0.966667 0.133333 0
1 0.133333 0
0 0.166667 0
0.0333333 0.166667 0
0.0666667 0.166667 0
0.1 0.166667 0
0.133333 0.166667 0
0.166667 0.166667 0
0.2 0.166667 0
0.233333 0.166667 0
0.266667 0.166667 0
0.3 0.166667 0
0.333333 0.166667 0
0.366667 0.166667 0
0.4 0.166667 0
0.433333 0.166667 0
0.466667 0.166667 0
0.5 0.166667 0
0.533333 0.166667 0
0.566667 0.166667 0
0.6 0.166667 0
0.633333 0.166667 0
0.666667 0.166667 0
0.7 0.166667 0
0.733333 0.166667 0
0.766667 0.166667 0
0.8 0.166667 0
0.833333 0.166667 0
0.866667 0.166667 0
0.9 0.166667 0
0.933333 0.166667 0
0.966667 0.166667 0
1 0.166667 0
0 0.2 0
0.0333333 0.2 0
0.0666667 0.2 0
0.1 0.2 0
0.133333 0.2 0
0.166667 0.2 0
0.2 0.2 0
0.233333 0.2 0
0.266667 0.2 0
0.3 0.2 0
0.333333 0.2 0
0.366667 0.2 0
0.4 0.2 0
0.433333 0.2 0
0.466667 0.2 0
0.5 0.2 0
0.533333 0.2 0
0.566667 0.2 0
0.6 0.2 0
0.633333 0.2 0
0.666667 0.2 0
0.7 0.2 0
0.733333 0.2 0
0.766667 0.2 0
0.8 0.2 0
0.833333 0.2 0
0.866667 0.2 0
0.9 0.2 0
0.933333 0.2 0
0.966667 0.2 0
1 0.2 0
0 0.233333 0
0.0333333 0.233333 0
0.0666667 0.233333 0
0.1 0.233333 0
0.133333 0.233333 0
0.166667 0.233333 0
0.2 0.233333 0
0.233333 0.233333 0
0.266667 0.233333 0
0.3 0.233333 0
0.333333 0.233333 0
0.366667 0.233333 0
0.4 0.233333 0
0.433333 0.233333 0
0.466667 0.233333 0
0.5 0.233333 0
0.533333 0.233333 0
0.566667 0.233333 0
0.6 0.233333 0
0.633333 0.233333 0
0.666667 0.233333 0
0.7 0.233333 0
0.733333 0.233333 0
0.766667 0.233333 0
0.8 0.233333 0
0.833333 0.233333 0
0.866667 0.233333 0
0.9 0.233333 0
0.933333 0.233333 0
0.966667 0.233333 0
1 0.233333 0
0 0.266667 0
0.0333333 0.266667 0
0.0666667 0.266667 0
0.1 0.266667 0
0.133333 0.266667 0
0.166667 0.266667 0
0.2 0.266667 0
0.233333 0.266667 0
0.266667 0.266667 0
0.3 0.266667 0
0.333333 0.266667 0
0.366667 0.266667 0
0.4 0.266667 0
0.433333 0.266667 0
0.466667 0.266667 0
0.5 0.266667 0
0.533333 0.266667 0
0.566667 0.266667 0
0.6 0.266667 0
0.633333 0.266667 0
0.666667 0.266667 0
0.7 0.266667 0
0.733333 0.266667 0
0.766667 0.266667 0
0.8 0.266667 0
0.833333 0.266667 0
0.866667 0.266667 0
0.9 0.266667 0
0.933333 0.266667 0
0.966667 0.266667 0
1 0.266667 0
0 0.3 0
0.0333333 0.3 0
0.0666667 0.3 0
0.1 0.3 0
0.133333 0.3 0
0.166667 0.3 0
0.2 0.3 0
0.233333 0.3 0
0.266667 0.3 0
0.3 0.3 0
0.333333 0.3 0
0.366667 0.3 0
0.4 0.3 0
0.433333 0.3 0
0.466667 0.3 0
0.5 0.3 0
0.533333 0.3 0
0.566667 0.3 0
0.6 0.3 0
0.633333 0.3 0
0.666667 0.3 0
0.7 0.3 0
0.733333 0.3 0
0.766667 0.3 0
0.8 0.3 0
0.833333 0.3 0
0.866667 0.3 0
0.9 0.3 0
0.933333 0.3 0
0.966667 0.3 0
1 0.3 0
0 0.333333 0
0.0333333 0.333333 0
0.0666667 0.333333 0
0.1 0.333333 0
0.133333 0.333333 0
0.166667 0.333333 0
0.2 0.333333 0
0.233333 0.333333 0
0.266667 0.333333 0
0.3 0.333333 0
0.333333 0.333333 0
0.366667 0.333333 0
0.4 0.333333 0
0.433333 0.333333 0
0.466667 0.333333 0
0.5 0.333333 0
0.533333 0.333333 0
0.566667 0.333333 0
0.6 0.333333 0
0.633333 0.333333 0
0.666667 0.333333 0
0.7 0.333333 0
0.733333 0.333333 0
0.766667 0.333333 0
0.8 0.333333 0
0.833333 0.333333 0
0.866667 0.333333 0
0.9 0.333333 0
0.933333 0.333333 0
0.966667 0.333333 0
1 0.333333 0
0 0.366667 0
0.0333333 0.366667 0
0.0666667 0.366667 0
0.1 0.366667 0
0.133333 0.366667 0
0.166667 0.366667 0
0.2 0.366667 0
0.233333 0.366667 0
0.266667 0.366667 0
0.3 0.366667 0
0.333333 0.366667 0
0.366667 0.366667 0
0.4 0.366667 0
0.433333 0.366667 0
0.466667 0.366667 0
0.5 0.366667 0
0.533333 0.366667 0
0.566667 0.366667 0
0.6 0.366667 0
0.633333 0.366667 0
0.666667 0.366667 0
0.7 0.366667 0
0.733333 0.366667 0
0.766667 0.366667 0
0.8 0.366667 0
0.833333 0.366667 0
0.866667 0.366667 0
0.9 0.366667 0
0.933333 0.366667 0
0.966667 0.366667 0
1 0.366667 0
0 0.4 0
0.0333333 0.4 0
0.0666667 0.4 0
0.1 0.4 0
0.133333 0.4 0
0.166667 0.4 0
0.2 0.4 0
0.233333 0.4 0
0.266667 0.4 0
0.3 0.4 0
0.333333 0.4 0
0.366667 0.4 0
0.4 0.4 0
0.433333 0.4 0
0.466667 0.4 0
0.5 0.4 0
0.533333 0.4 0
0.566667 0.4 0
0.6 0.4 0
0.633333 0.4 0
0.666667 0.4 0
0.7 0.4 0
0.733333 0.4 0
0.766667 0.4 0
0.8 0.4 0
0.833333 0.4 0
0.866667 0.4 0
0.9 0.4 0
0.933333 0.4 0
0.966667 0.4 0
1 0.4 0
0 0.433333 0
0.0333333 0.433333 0
0.0666667 0.433333 0
0.1 0.433333 0
0.133333 0.433333 0
0.166667 0.433333 0
0.2 0.433333 0
0.233333 0.433333 0
0.266667 0.433333 0
0.3 0.433333 0
0.333333 0.433333 0
0.366667 0.433333 0
0.4 0.433333 0
0.433333 0.433333 0
0.466667 0.433333 0
0.5 0.433333 0
0.533333 0.433333 0
0.566667 0.433333 0
0.6 0.433333 0
0.633333 0.433333 0
0.666667 0.433333 0
0.7 0.433333 0
0.733333 0.433333 0
0.766667 0.433333 0
0.8 0.433333 0
0.833333 0.433333 0
0.866667 0.433333 0
0.9 0.433333 0
0.933333 0.433333 0
0.966667 0.433333 0
1 0.433333 0
0 0.466667 0
0.0333333 0.466667 0
0.0666667 0.466667 0
0.1 0.466667 0
0.133333 0.466667 0
0.166667 0.466667 0
0.2 0.466667 0
0.233333 0.466667 0
0.266667 0.466667 0
0.3 0.466667 0
0.333333 0.466667 0
0.366667 0.466667 0
0.4 0.466667 0
0.433333 0.466667 0
0.466667 0.466667 0
0.5 0.466667 0
0.533333 0.466667 0
0.566667 0.466667 0
0.6 0.466667 0
0.633333 0.466667 0
0.666667 0.466667 0
0.7 0.466667 0
0.733333 0.466667 0
0.766667 0.466667 0
0.8 0.466667 0
0.833333 0.466667 0
0.866667 0.466667 0
0.9 0.466667 0
0.933333 0.466667 0
0.966667 0.466667 0
1 0.466667 0
0 0.5 0
0.0333333 0.5 0
0.0666667 0.5 0
0.1 0.5 0
0.133333 0.5 0
0.166667 0.5 0
0.2 0.5 0
0.233333 0.5 0
0.266667 0.5 0
0.3 0.5 0
0.333333 0.5 0
0.366667 0.5 0
0.4 0.5 0
0.433333 0.5 0
0.466667 0.5 0
0.5 0.5 0
0.533333 0.5 0
0.566667 0.5 0
0.6 0.5 0
0.633333 0.5 0
0.666667 0.5 0
0.7 0.5 0
0.733333 0.5 0
0.766667 0.5 0
0.8 0.5 0
0.833333 0.5 0
0.866667 0.5 0
0.9 0.5 0
0.933333 0.5 0
0.966667 0.5 0
1 0.5 0
0 0.533333 0
0.0333333 0.533333 0
0.0666667 0.533333 0
0.1 0.533333 0
0.133333 0.533333 0
0.166667 0.533333 0
0.2 0.533333 0
0.233333 0.533333 0
0.266667 0.533333 0
0.3 0.533333 0
0.333333 0.533333 0
0.366667 0.533333 0
0.4 0.533333 0
0.433333 0.533333 0
0.466667 0.533333 0
0.5 0.533333 0
0.533333 0.533333 0
0.566667 0.533333 0
0.6 0.533333 0
0.633333 0.533333 0
0.666667 0.533333 0
0.7 0.533333 0
0.733333 0.533333 0
0.766667 0.533333 0
0.8 0.533333 0
0.833333 0.533333 0
0.866667 0.533333 0
0.9 0.533333 0
0.933333 0.533333 0
0.966667 0.533333 0
1 0.533333 0
0 0.566667 0
0.0333333 0.566667 0
0.0666667 0.566667 0
0.1 0.566667 0
0.133333 0.566667 0
0.166667 0.566667 0
0.2 0.566667 0
0.233333 0.566667 0
0.266667 0.566667 0
0.3 0.566667 0
0.333333 0.566667 0
0.366667 0.566667 0
0.4 0.566667 0
0.433333 0.566667 0
0.466667 0.566667 0
0.5 0.566667 0
0.533333 0.566667 0
0.566667 0.566667 0
0.6 0.566667 0
0.633333 0.566667 0
0.666667 0.566667 0
0.7 0.566667 0
0.733333 0.566667 0
0.766667 0.566667 0
0.8 0.566667 0
0.833333 0.566667 0
0.866667 0.566667 0
0.9 0.566667 0
0.933333 0.566667 0
0.966667 0.566667 0
1 0.566667 0
0 0.6 0
0.0333333 0.6 0
0.0666667 0.6 0
0.1 0.6 0
0.133333 0.6 0
0.166667 0.6 0
0.2 0.6 0
0.233333 0.6 0
0.266667 0.6 0
0.3 0.6 0
0.333333 0.6 0
0.366667 0.6 0
0.4 0.6 0
0.433333 0.6 0
0.466667 0.6 0
0.5 0.6 0
0.533333 0.6 0
0.566667 0.6 0
0.6 0.6 0
0.633333 0.6 0
0.666667 0.6 0
0.7 0.6 0
0.733333 0.6 0
0.766667 0.6 0
0.8 0.6 0
0.833333 0.6 0
0.866667 0.6 0
0.9 0.6 0
0.933333 0.6 0
0.966667 0.6 0
1 0.6 0
0 0.633333 0
0.0333333 0.633333 0
0.0666667 0.633333 0
0.1 0.633333 0
0.133333 0.633333 0
0.166667 0.633333 0
0.2 0.633333 0
0.233333 0.633333 0
0.266667 0.633333 0
[...]
    <PointData>
      <DataArray type="Float64" NumberOfComponents="3" Name="Velocity" format="ascii">
0 0 0
0 0 0
0 0 0
0 0 0
0 0 0
0 0 0
0 0 0
0 0 0
0 0 0
0 0 0
0 0 0
0 0 0
0 0 0
0 0 0
0 0 0
0 0 0
0 0 0
0 0 0
0 0 0
0 0 0
0 0 0
0 0 0
0 0 0
0 0 0
0 0 0
0 0 0
0 0 0
0 0 0
0 0 0
0 0 0
0 0 0
0 0 0
-0.0273649 0.0351378 0
-0.0624692 0.042258 0
-0.104218 0.0377815 0
-0.151516 0.0381289 0
-0.197213 0.0380732 0
-0.234157 0.0323874 0
-0.265421 0.0256467 0
-0.294078 0.0224263 0
-0.318823 0.0201573 0
-0.338355 0.0162704 0
-0.353686 0.0121567 0
-0.36583 0.00920757 0
-0.37481 0.00669164 0
-0.380652 0.00387775 0
-0.383418 0.000914054 0
-0.383171 -0.00205128 0
-0.379751 -0.00497604 0
-0.372997 -0.00781803 0
-0.362732 -0.0111805 0
-0.348776 -0.0156669 0
-0.33008 -0.0200869 0
-0.305596 -0.0232503 0
-0.276312 -0.0273266 0
-0.243215 -0.034485 0
-0.204065 -0.0403881 0
-0.156624 -0.0406987 0
-0.107844 -0.0402457 0
-0.0646798 -0.0438584 0
-0.0283317 -0.0357166 0
0 0 0
0 0 0
-0.0215868 0.0528054 0
-0.0808545 0.0800873 0
-0.15546 0.0887607 0
-0.22306 0.0857405 0
-0.285187 0.0767423 0
-0.343375 0.0674816 0
-0.395402 0.0583789 0
-0.439047 0.049855 0
-0.475204 0.0416722 0
-0.50477 0.0335932 0
-0.528431 0.0261572 0
-0.546873 0.0199036 0
-0.560279 0.0142308 0
-0.568833 0.0085373 0
-0.57271 0.00280473 0
-0.572086 -0.00298523 0
-0.566641 -0.00893151 0
-0.556055 -0.0151331 0
-0.539955 -0.022139 0
-0.517966 -0.0304984 0
-0.489174 -0.0397832 0
-0.452664 -0.0495654 0
-0.407597 -0.0598016 0
-0.353134 -0.0704487 0
-0.291455 -0.0805773 0
-0.224743 -0.0892578 0
-0.153353 -0.0913197 0
-0.0776405 -0.0815922 0
-0.0192938 -0.053383 0
0 0 0
0 0 0
-0.0148359 0.093378 0
-0.0825685 0.146004 0
-0.170407 0.165509 0
-0.245562 0.159523 0
-0.31442 0.141841 0
-0.383371 0.126259 0
-0.44591 0.110808 0
-0.495531 0.0935221 0
-0.535493 0.0765059 0
-0.569051 0.0618636 0
-0.596204 0.0489314 0
-0.61695 0.0370452 0
-0.631749 0.0258952 0
-0.641061 0.0151716 0
-0.645043 0.00459216 0
-0.643852 -0.00612538 0
-0.637178 -0.0173164 0
-0.62471 -0.0293165 0
-0.60587 -0.0424545 0
-0.580076 -0.0570596 0
-0.546999 -0.0737938 0
-0.506305 -0.0933193 0
-0.45513 -0.113313 0
-0.390608 -0.131453 0
-0.318553 -0.148635 0
-0.244776 -0.165753 0
-0.165548 -0.169688 0
-0.0771376 -0.147323 0
-0.011352 -0.0927338 0
0 0 0
0 0 0
-0.0392819 0.197231 0
-0.0950236 0.272526 0
-0.165742 0.2806 0
-0.249954 0.276167 0
-0.335411 0.259205 0
-0.409864 0.229695 0
-0.472912 0.195544 0
-0.524156 0.164664 0
-0.56604 0.13662 0
-0.601005 0.110977 0
-0.628978 0.0874092 0
-0.649883 0.0655894 0
-0.66456 0.0449625 0
-0.67385 0.0249736 0
-0.677578 0.00519645 0
-0.675572 -0.0147953 0
-0.667866 -0.0355809 0
-0.654499 -0.0577397 0
-0.634677 -0.0817064 0
-0.607611 -0.107916 0
-0.573268 -0.136823 0
-0.531618 -0.168886 0
-0.480183 -0.20375 0
-0.416488 -0.241061 0
-0.341738 -0.272628 0
-0.257142 -0.290259 0
-0.173454 -0.291818 0
-0.101427 -0.275171 0
-0.0429718 -0.193504 0
0 0 0
0 0 0
-0.0577159 0.265696 0
-0.115266 0.366931 0
-0.185134 0.3792 0
-0.279803 0.378002 0
-0.375714 0.357799 0
-0.449307 0.313052 0
-0.507116 0.261141 0
-0.555675 0.219443 0
-0.596014 0.183506 0
-0.629161 0.148879 0
-0.65524 0.116399 0
-0.674371 0.0869023 0
-0.687551 0.0592529 0
-0.695772 0.0323149 0
-0.698669 0.0055985 0
-0.695873 -0.0213866 0
-0.687636 -0.0493086 0
-0.674211 -0.0788359 0
-0.65478 -0.110807 0
-0.628525 -0.146059 0
-0.595376 -0.184211 0
-0.555265 -0.224879 0
-0.507007 -0.27093 0
-0.449419 -0.325228 0
-0.37735 -0.371435 0
-0.28565 -0.393211 0
-0.194438 -0.392172 0
-0.123834 -0.369936 0
-0.0627257 -0.261034 0
0 0 0
0 0 0
-0.032929 0.200107 0
-0.140342 0.336497 0
-0.272253 0.406479 0
-0.378675 0.407363 0
-0.462883 0.366588 0
-0.528156 0.311595 0
-0.579229 0.25615 0
-0.620841 0.214021 0
-0.654583 0.178658 0
-0.682047 0.143517 0
-0.703477 0.11071 0
-0.719116 0.08235 0
-0.729559 0.0565862 0
-0.7354 0.0315671 0
-0.736665 0.00677915 0
-0.733382 -0.0182912 0
-0.725417 -0.0440837 0
-0.712638 -0.0710382 0
-0.694579 -0.100667 0
-0.670772 -0.134483 0
-0.640716 -0.171295 0
-0.603907 -0.209912 0
-0.559849 -0.254671 0
-0.508047 -0.309909 0
-0.441725 -0.363931 0
-0.35411 -0.405044 0
-0.245874 -0.405215 0
-0.117688 -0.336414 0
-0.0191863 -0.200666 0
0 0 0
0 0 0
-0.00837428 0.310673 0
-0.166377 0.489898 0
-0.355393 0.556407 0
-0.456807 0.528931 0
-0.512128 0.454971 0
-0.562866 0.382025 0
-0.605652 0.316419 0
-0.637117 0.264482 0
-0.660774 0.219981 0
-0.680136 0.176684 0
-0.695285 0.136425 0
-0.706306 0.101036 0
-0.713209 0.0685315 0
-0.716009 0.0369273 0
-0.71501 0.0056011 0
-0.71052 -0.026069 0
-0.702195 -0.0584688 0
-0.68969 -0.0919843 0
-0.672894 -0.128366 0
-0.651697 -0.169363 0
-0.625763 -0.213777 0
-0.594755 -0.260408 0
-0.557384 -0.313265 0
-0.512361 -0.376357 0
-0.458866 -0.445832 0
-0.396077 -0.51784 0
-0.29265 -0.543354 0
-0.117239 -0.473344 0
0.017772 -0.296122 0
0 0 0
0 0 0
-0.0275048 0.907608 0
-0.189495 1.13581 0
-0.362848 1.02295 0
-0.424439 0.90739 0
-0.438657 0.792346 0
-0.469892 0.681042 0
-0.502781 0.577793 0
-0.521966 0.486911 0
-0.533615 0.405378 0
-0.543899 0.330175 0
-0.552256 0.259628 0
-0.558126 0.192062 0
-0.561127 0.126658 0
-0.560878 0.0625928 0
-0.557149 -0.00107297 0
-0.549712 -0.06528 0
-0.538957 -0.131027 0
-0.525275 -0.199312 0
-0.508544 -0.270979 0
-0.488644 -0.346874 0
-0.466994 -0.427358 0
-0.445019 -0.51279 0
-0.418282 -0.605001 0
-0.382349 -0.705823 0
-0.352774 -0.812851 0
-0.345108 -0.923682 0
-0.29966 -1.01899 0
-0.156739 -1.07946 0
-0.0217256 -0.831123 0
0 0 0
0 0 0
-0.0810128 1.39794 0
-0.203804 1.63108 0
-0.302526 1.33771 0
-0.311332 1.15615 0
-0.290788 1.02851 0
-0.301463 0.896931 0
-0.321422 0.768511 0
-0.328734 0.650361 0
-0.330307 0.542426 0
-0.333047 0.444651 0
-0.335682 0.352425 0
-0.336938 0.261135 0
-0.336495 0.170935 0
-0.334033 0.0819787 0
-0.328787 -0.0066803 0
-0.319992 -0.0959874 0
-0.308761 -0.187245 0
-0.296208 -0.281757 0
-0.281783 -0.379812 0
-0.264936 -0.481697 0
-0.2488 -0.588426 0
-0.23651 -0.701013 0
-0.221787 -0.82059 0
-0.198354 -0.948288 0
-0.191276 -1.07763 0
-0.22562 -1.20215 0
-0.24196 -1.3491 0
-0.180874 -1.54574 0
-0.0857547 -1.27004 0
0 0 0
0 0 0
-0.159591 1.18871 0
-0.20341 1.33255 0
-0.182337 1.03227 0
-0.147247 0.888607 0
-0.116839 0.81327 0
-0.109807 0.717972 0
-0.112376 0.61681 0
-0.110768 0.523882 0
-0.108051 0.4387 0
-0.107292 0.360775 0
-0.106854 0.286923 0
-0.105101 0.213959 0
-0.102496 0.141334 0
-0.0995003 0.0684999 0
-0.095629 -0.00465812 0
-0.0903959 -0.078254 0
-0.0846659 -0.152613 0
-0.0793042 -0.228059 0
-0.0728637 -0.306167 0
-0.063897 -0.388509 0
-0.0555672 -0.473369 0
-0.0510373 -0.559033 0
-0.0471419 -0.65074 0
-0.0407156 -0.753731 0
-0.0421987 -0.852822 0
-0.0620315 -0.932827 0
-0.0946096 -1.05063 0
-0.134329 -1.26313 0
-0.122391 -1.07726 0
0 0 0
0 0 0
-0.184111 0.654535 0
-0.158214 0.691597 0
-0.0536453 0.488779 0
-0.00173958 0.423674 0
0.0206135 0.412747 0
0.0365248 0.372462 0
0.0469421 0.320314 0
0.0528132 0.273803 0
0.0556734 0.231223 0
0.057058 0.190868 0
0.0584192 0.152313 0
0.0612092 0.115132 0
0.0643384 0.077868 0
0.0667172 0.0390604 0
0.0683458 -0.000576614 0
0.0692242 -0.040329 0
0.0690737 -0.0794781 0
0.0676155 -0.117305 0
0.0666884 -0.156523 0
0.0681311 -0.199844 0
0.069876 -0.243012 0
0.0698555 -0.281772 0
0.0671468 -0.324766 0
0.0608276 -0.380633 0
0.0582539 -0.429239 0
0.0667822 -0.450447 0
0.0422707 -0.505642 0
-0.0594223 -0.656212 0
-0.114709 -0.591287 0
0 0 0
0 0 0
-0.0754467 0.170049 0
-0.0381161 0.159574 0
0.0321815 0.0893745 0
0.0556355 0.0802534 0
0.0589891 0.0930732 0
0.0689854 0.0886966 0
0.0791204 0.076648 0
0.0828903 0.0664519 0
0.0833845 0.0570163 0
0.0836925 0.0472493 0
0.0843321 0.0377841 0
0.0858207 0.0292539 0
0.0874763 0.0205501 0
0.0886169 0.010564 0
0.0891584 -5.97601e-06 0
0.0890166 -0.0104611 0
0.0882032 -0.0201903 0
0.0867293 -0.028582 0
0.0853468 -0.0373566 0
0.0848073 -0.0482339 0
0.0847029 -0.0581786 0
0.0846258 -0.064155 0
0.0825721 -0.0719807 0
0.0765383 -0.0874731 0
0.0738785 -0.0977046 0
0.0819469 -0.0897475 0
0.0685582 -0.0961785 0
0.00152725 -0.149574 0
-0.0457806 -0.15062 0
0 0 0
0 0 0
0.0462436 -0.118667 0
0.0664788 -0.135933 0
0.0675173 -0.107568 0
0.0561708 -0.0893393 0
0.0445322 -0.076875 0
0.0446942 -0.0658032 0
0.0486453 -0.05587 0
0.0483737 -0.0468213 0
0.0464575 -0.0388182 0
0.0454745 -0.0320216 0
0.0450374 -0.025695 0
0.0447591 -0.019102 0
0.044627 -0.0126039 0
0.0446286 -0.00656218 0
0.0447563 -0.000649059 0
0.0450025 0.00546317 0
0.0454733 0.0118778 0
0.0462751 0.0186981 0
0.0469311 0.0256965 0
0.0469648 0.0326455 0
0.0472305 0.0403237 0
0.048583 0.0495099 0
0.0495923 0.0587411 0
0.0488286 0.0665547 0
0.0471815 0.0762596 0
0.0455405 0.0911649 0
0.0431935 0.110271 0
0.0394279 0.132579 0
0.0273335 0.111388 0
0 0 0
0 0 0
0.0608011 -0.06553 0
0.0651649 -0.0673393 0
0.044736 -0.0436758 0
0.0311592 -0.0327871 0
0.0234868 -0.0282191 0
0.0207712 -0.0235176 0
0.0200033 -0.0189205 0
0.0181741 -0.0146655 0
0.0162672 -0.0111787 0
0.0152664 -0.00888639 0
0.0146885 -0.00715746 0
0.0140503 -0.00536099 0
0.0134991 -0.00357834 0
0.013182 -0.00189081 0
0.0130872 -0.000208719 0
0.0132027 0.00155765 0
0.013635 0.00335339 0
0.0144907 0.0051236 0
0.0152609 0.00700147 0
0.0154365 0.00912019 0
0.0157758 0.011688 0
0.0170366 0.0149132 0
0.018666 0.018526 0
0.0201106 0.0222563 0
0.0206693 0.027133 0
0.0196412 0.034185 0
0.0251169 0.0462188 0
0.0451875 0.0660413 0
0.0475746 0.0613893 0
0 0 0
0 0 0
0.0276803 0.0838493 0
0.0235373 0.101328 0
0.00907818 0.0888795 0
0.00580984 0.0829483 0
0.00657458 0.0788096 0
0.00421465 0.0717387 0
0.000916572 0.0636026 0
-0.00113314 0.0562683 0
-0.00230795 0.0490144 0
-0.00298133 0.0411194 0
-0.00340426 0.0329241 0
-0.00382775 0.0247689 0
-0.00419432 0.0166416 0
-0.00444652 0.0085299 0
-0.00461836 0.000392745 0
-0.00474384 -0.00781087 0
-0.00476651 -0.0161116 0
-0.0046299 -0.0245403 0
-0.00441984 -0.0331121 0
-0.00422217 -0.0418427 0
-0.00385122 -0.0503879 0
-0.00312133 -0.0584037 0
-0.00189273 -0.0662736 0
-2.56443e-05 -0.0743812 0
0.00246252 -0.0811877 0
0.00555436 -0.0851541 0
0.0138784 -0.0892174 0
0.032063 -0.0963148 0
0.0356048 -0.0765433 0
0 0 0
0 0 0
0.00633527 0.0838616 0
0.00719119 0.106041 0
0.0057846 0.097926 0
0.00533229 0.0909054 0
0.00451736 0.0839802 0
0.0020229 0.0761514 0
-0.000893042 0.0678055 0
-0.00297241 0.0593289 0
-0.00438944 0.0508408 0
-0.00531835 0.0424604 0
-0.00593052 0.034077 0
-0.00639732 0.0255798 0
-0.00674023 0.0170707 0
-0.00698074 0.00865178 0
-0.00712972 0.000233034 0
-0.00719803 -0.00827554 0
-0.00718568 -0.0168654 0
-0.00709268 -0.0255281 0
-0.0068669 -0.0343146 0
-0.00645619 -0.0432761 0
-0.00584027 -0.0522065 0
-0.00499884 -0.0608998 0
-0.00376948 -0.0693049 0
-0.00198977 -0.0773707 0
0.00068157 -0.0848057 0
0.00458579 -0.0913187 0
0.00902756 -0.0969191 0
0.0133115 -0.101617 0
0.0120862 -0.0783355 0
0 0 0
0 0 0
-0.0034824 0.0322461 0
0.00363077 0.0522001 0
0.0115423 0.0608874 0
0.0104551 0.0593332 0
0.00581826 0.0533217 0
0.0030808 0.0486373 0
0.00123555 0.0440549 0
-0.000724714 0.0383495 0
-0.00248562 0.0323425 0
-0.0037328 0.0268552 0
-0.00457648 0.0215488 0
-0.00512689 0.0160844 0
-0.00547593 0.0105956 0
-0.00571547 0.00521601 0
-0.00582509 -0.000136187 0
-0.00578431 -0.00554269 0
-0.00562996 -0.0109717 0
-0.00539884 -0.0163914 0
-0.00502826 -0.0218573 0
-0.00445556 -0.0274252 0
-0.00365507 -0.0330252 0
-0.00260113 -0.038588 0
-0.00124054 -0.0437312 0
0.000479893 -0.0480726 0
0.00274187 -0.0522724 0
0.00572711 -0.0569907 0
0.00551401 -0.0579034 0
-0.001819 -0.0506865 0
-0.00681073 -0.032374 0
0 0 0
0 0 0
-0.00202132 0.0267422 0
0.000360295 0.0452063 0
0.00303851 0.0551874 0
0.001907 0.0564806 0
-0.00101964 0.0528634 0
-0.00372683 0.0481133 0
-0.00603661 0.0427175 0
-0.00777102 0.0371632 0
-0.00910482 0.0315611 0
-0.0102128 0.0260223 0
-0.0110283 0.0205871 0
-0.011485 0.0152958 0
-0.0117387 0.0101031 0
-0.0119456 0.00496373 0
-0.0120827 -0.000163256 0
-0.0121271 -0.00531867 0
-0.0121068 -0.0104942 0
-0.0120495 -0.0156817 0
-0.0118519 -0.0209918 0
-0.0114103 -0.0265352 0
-0.0107593 -0.0321018 0
-0.00993343 -0.0374812 0
-0.00858215 -0.0427157 0
-0.00635498 -0.0478475 0
-0.00394119 -0.0521389 0
-0.00203004 -0.054852 0
-0.00171276 -0.0531878 0
-0.00408055 -0.044347 0
-0.00491557 -0.0270457 0
0 0 0
0 0 0
0.00213013 0.0386942 0
-0.00266287 0.056749 0
-0.00863278 0.0625906 0
-0.0100334 0.0646448 0
-0.0102927 0.0628057 0
-0.0128387 0.0569669 0
-0.0157778 0.0495738 0
-0.0172167 0.0430718 0
-0.0179154 0.0368372 0
-0.018634 0.0302462 0
-0.0192017 0.0236931 0
-0.0194475 0.0175719 0
-0.0195487 0.0116825 0
-0.0196822 0.00582486 0
-0.0198409 -2.45759e-05 0
-0.0200171 -0.0058893 0
-0.0202138 -0.0118064 0
-0.0204338 -0.0178128 0
-0.0205425 -0.0240524 0
-0.020405 -0.0306693 0
-0.0200879 -0.0373517 0
-0.0196578 -0.043788 0
-0.0184669 -0.0503853 0
-0.0158674 -0.0575505 0
-0.0132058 -0.0630776 0
-0.0118286 -0.0647603 0
-0.00907944 -0.0623959 0
-0.00230191 -0.0557811 0
0.00266942 -0.0374658 0
0 0 0
0 0 0
0.000383592 0.0394465 0
-0.00548135 0.058518 0
-0.0123775 0.0648612 0
-0.0150874 0.066123 0
-0.0162973 0.0633492 0
-0.0186934 0.0575856 0
-0.0210564 0.0504043 0
-0.0221671 0.0433772 0
-0.0225857 0.0365107 0
-0.0228723 0.0298114 0
-0.0230121 0.0233684 0
-0.0229906 0.0172709 0
-0.022926 0.0114231 0
-0.0229368 0.0057293 0
-0.023038 0.000103448 0
-0.0232451 -0.0055404 0
-0.023549 -0.0112813 0
-0.0239409 -0.0171984 0
-0.0243046 -0.023374 0
-0.024524 -0.0298905 0
-0.0245756 -0.0366907 0
-0.0244362 -0.0437171 0
-0.0235672 -0.0508668 0
-0.0214303 -0.0580367 0
-0.0188903 -0.0637609 0
-0.0168116 -0.0665733 0
-0.0130127 -0.0651512 0
-0.00531189 -0.0581718 0
0.000841956 -0.0387498 0
0 0 0
0 0 0
-0.00313138 0.0379249 0
-0.00816319 0.0584726 0
-0.0135735 0.066368 0
-0.0178404 0.066336 0
-0.0210496 0.0617219 0
-0.0232865 0.0558713 0
-0.0246498 0.0490844 0
-0.0252379 0.0416614 0
-0.0252924 0.0343238 0
-0.0250547 0.027793 0
-0.0246741 0.0217879 0
-0.0243 0.0160274 0
-0.0240026 0.0105289 0
-0.0238523 0.0053101 0
-0.0238702 0.000221311 0
-0.0240773 -0.00488714 0
-0.0244708 -0.010126 0
-0.0250482 -0.0156058 0
-0.0257115 -0.0213695 0
-0.0263631 -0.0274597 0
-0.0268963 -0.0340739 0
-0.0272047 -0.0414096 0
-0.0268987 -0.0488784 0
-0.0255888 -0.0558923 0
-0.0233379 -0.0619762 0
-0.0202086 -0.0666553 0
-0.0158137 -0.0667301 0
-0.00976611 -0.0590012 0
-0.00388761 -0.0384356 0
0 0 0
0 0 0
-0.00428524 0.0430549 0
-0.0107764 0.0645722 0
-0.0175989 0.0714796 0
-0.022878 0.0707047 0
-0.0265657 0.0651519 0
-0.0286137 0.0577258 0
-0.0293355 0.0494896 0
-0.0290447 0.0415066 0
-0.0282121 0.0340183 0
-0.0273086 0.0272662 0
-0.0264023 0.0211266 0
-0.0255615 0.0154757 0
-0.0249102 0.0102037 0
-0.0245721 0.00520027 0
-0.0245335 0.000329511 0
-0.0247802 -0.00454471 0
-0.0253382 -0.00954715 0
-0.0262334 -0.0148026 0
-0.0273364 -0.0204523 0
-0.0285179 -0.0266378 0
-0.0297237 -0.0334567 0
-0.0308994 -0.0410068 0
-0.0314768 -0.0491388 0
-0.0308879 -0.0577034 0
-0.0288921 -0.0655106 0
-0.0252491 -0.0713706 0
-0.0197836 -0.072409 0
-0.0123202 -0.0657517 0
-0.00500893 -0.0440612 0
0 0 0
0 0 0
-0.00442486 0.0510455 0
-0.0136301 0.073703 0
-0.0231252 0.0785852 0
-0.0284193 0.0763048 0
-0.030909 0.0692144 0
-0.0319909 0.0596663 0
-0.0317203 0.0496309 0
-0.0301522 0.0410783 0
-0.0280831 0.0335576 0
-0.0263091 0.0266176 0
-0.0247626 0.0203498 0
-0.0233757 0.0148456 0
-0.0223174 0.00984028 0
-0.0217566 0.00506895 0
-0.0216476 0.000421088 0
-0.0219445 -0.0042139 0
-0.0226955 -0.00896941 0
-0.0239491 -0.0139788 0
-0.0255605 -0.0194902 0
-0.0273852 -0.0257514 0
-0.0294573 -0.0327362 0
-0.0318109 -0.0404179 0
-0.0336634 -0.0492389 0
-0.0342319 -0.0596415 0
-0.0332826 -0.0696788 0
-0.0305819 -0.0774038 0
-0.0248028 -0.0802105 0
-0.0146187 -0.0754931 0
-0.00477067 -0.0523801 0
0 0 0
0 0 0
-0.00489714 0.0581059 0
-0.0170335 0.0827511 0
-0.0288239 0.0860738 0
-0.0326832 0.0802121 0
-0.0321428 0.0694846 0
-0.0307344 0.0582101 0
-0.0284109 0.047519 0
-0.0251253 0.038542 0
-0.0216436 0.0309049 0
-0.0187317 0.0242339 0
-0.0163209 0.0184232 0
-0.0143428 0.0133666 0
-0.0128927 0.00883158 0
-0.0120661 0.00458526 0
-0.0118324 0.000489085 0
-0.0121609 -0.00359552 0
-0.0130874 -0.00781728 0
-0.0146478 -0.012325 0
-0.016765 -0.0173509 0
-0.0193615 -0.0231275 0
-0.0224967 -0.0298096 0
-0.0262299 -0.037552 0
-0.0298199 -0.0467698 0
-0.0325253 -0.0578782 0
-0.0342394 -0.0697953 0
-0.0348553 -0.0814394 0
-0.0307515 -0.0881572 0
-0.0183061 -0.0852954 0
-0.00542149 -0.0601457 0
0 0 0
0 0 0
-0.0062784 0.0680375 0
-0.0181313 0.092651 0
-0.0277938 0.0910285 0
-0.0275009 0.0803581 0
-0.0223044 0.0660966 0
-0.0172561 0.0537011 0
-0.0121699 0.0430743 0
-0.00685951 0.0341187 0
-0.00187927 0.0266976 0
0.00221663 0.020674 0
0.00550169 0.0156678 0
0.00804944 0.0112988 0
0.00986325 0.00741815 0
0.0109465 0.00387718 0
0.0113136 0.000509368 0
0.0109791 -0.00285177 0
0.00991973 -0.00636172 0
0.00811214 -0.010176 0
0.00555085 -0.0144694 0
0.00223035 -0.0194168 0
-0.0019535 -0.0254059 0
-0.00710481 -0.0328246 0
-0.0126728 -0.0419193 0
-0.0181066 -0.0529364 0
-0.023586 -0.0660369 0
-0.0292908 -0.0813818 0
-0.0298017 -0.0932378 0
-0.0196994 -0.0958715 0
-0.00707006 -0.0709149 0
0 0 0
0 0 0
-0.00914497 0.0846416 0
-0.0140685 0.104337 0
-0.0131336 0.0905322 0
-0.00470358 0.0746747 0
0.0065691 0.0591849 0
0.0160318 0.0464836 0
0.0242402 0.0362166 0
0.0317497 0.0280297 0
0.0382245 0.021573 0
0.0433287 0.0164966 0
0.0472843 0.0124049 0
0.0503133 0.00890213 0
0.0524499 0.00584062 0
0.0537284 0.00307274 0
0.0541921 0.000457805 0
0.0538841 -0.00214487 0
0.0527593 -0.00487367 0
0.0507727 -0.00786697 0
0.0478876 -0.0112805 0
0.0440673 -0.01527 0
0.0390606 -0.020254 0
0.0326161 -0.026651 0
0.0250519 -0.0348748 0
0.016686 -0.0453392 0
0.00685371 -0.0585805 0
-0.00510957 -0.0751352 0
-0.0141254 -0.0924406 0
-0.0151154 -0.107934 0
-0.00982505 -0.0882445 0
0 0 0
0 0 0
0.00828885 0.0883747 0
0.0229255 0.101525 0
0.0410933 0.0792812 0
0.0599756 0.0614713 0
0.0773187 0.0472997 0
0.090869 0.0359706 0
0.101681 0.0271628 0
0.110809 0.0205547 0
0.118212 0.0156105 0
0.123849 0.0117941 0
0.128099 0.00878974 0
0.131339 0.00628161 0
0.133614 0.0041268 0
0.134968 0.00218238 0
0.135477 0.000351904 0
0.135216 -0.00146107 0
0.134118 -0.00336512 0
0.132113 -0.00546885 0
0.129153 -0.00789727 0
0.125188 -0.0107754 0
0.119833 -0.0144655 0
0.112699 -0.0193298 0
0.103788 -0.0258976 0
0.0931029 -0.0346984 0
0.0794337 -0.0463154 0
0.0615713 -0.061332 0
0.0419803 -0.0805868 0
0.0231252 -0.104919 0
0.00810033 -0.0921241 0
0 0 0
2.77334e-30 0 0
0.0678087 0.0596934 0
0.120621 0.0679338 0
0.160824 0.0519715 0
0.190803 0.0390572 0
0.212785 0.0289916 0
0.228995 0.0215754 0
0.241014 0.0161292 0
0.250424 0.0119734 0
0.257626 0.00888941 0
0.263023 0.00665858 0
0.267018 0.00497733 0
0.270018 0.00354205 0
0.272103 0.00230454 0
0.273354 0.00121657 0
0.273842 0.000209174 0
0.273638 -0.000786589 0
0.272682 -0.00184805 0
0.270912 -0.00305253 0
0.268254 -0.00443268 0
0.264633 -0.00602111 0
0.25965 -0.00815196 0
0.252909 -0.0111593 0
0.24397 -0.0152487 0
0.232395 -0.0206259 0
0.216508 -0.028131 0
0.194635 -0.0386046 0
0.164218 -0.0524972 0
0.122702 -0.0702595 0
0.0684929 -0.0625432 0
2.77334e-30 0 0
0.25 0 0
0.341138 0.0223258 0
0.404489 0.0264594 0
0.446859 0.0213092 0
0.475054 0.0157833 0
0.493502 0.0109839 0
0.506631 0.00801336 0
0.5159 0.00608514 0
0.522764 0.00441279 0
0.527784 0.00311687 0
0.531517 0.00231794 0
0.53425 0.00177748 0
0.536266 0.001257 0
0.537653 0.000790167 0
0.538495 0.000410655 0
0.538834 7.63075e-05 0
0.538712 -0.000255034 0
0.538095 -0.000625368 0
0.536949 -0.0010767 0
0.535201 -0.00157187 0
0.532778 -0.00207376 0
0.529408 -0.00282591 0
0.524819 -0.00407192 0
0.51843 -0.00569419 0
0.509661 -0.00757516 0
0.497041 -0.0105262 0
0.479103 -0.0153587 0
0.450816 -0.0212691 0
0.407149 -0.0274542 0
0.342183 -0.0237519 0
0.25 0 0
1 0 0
1 0 0
1 0 0
1 0 0
1 0 0
1 0 0
1 0 0
1 0 0
1 0 0
1 0 0
1 0 0
1 0 0
1 0 0
1 0 0
1 0 0
1 0 0
1 0 0
1 0 0
1 0 0
1 0 0
1 0 0
1 0 0
1 0 0
1 0 0
1 0 0
1 0 0
1 0 0
1 0 0
1 0 0
1 0 0
1 0 0
      </DataArray> 