<?xml version="1.0"?>
<VTKFile type="UnstructuredGrid">
  <UnstructuredGrid>
  <Piece NumberOfPoints="6561"  NumberOfCells="1600">
    <Points>
      <DataArray type="Float64" NumberOfComponents="3" format="ascii">
0 0 0
0.0125 0 0
0.025 0 0
0.0375 0 0
0.05 0 0
0.0625 0 0
0.075 0 0
0.0875 0 0
0.1 0 0
0.1125 0 0
0.125 0 0
0.1375 0 0
0.15 0 0
0.1625 0 0
0.175 0 0
0.1875 0 0
0.2 0 0
0.2125 0 0
0.225 0 0
0.2375 0 0
0.25 0 0
0.2625 0 0
0.275 0 0
0.2875 0 0
0.3 0 0
0.3125 0 0
0.325 0 0
0.3375 0 0
0.35 0 0
0.3625 0 0
0.375 0 0
0.3875 0 0
0.4 0 0
0.4125 0 0
0.425 0 0
0.4375 0 0
0.45 0 0
0.4625 0 0
0.475 0 0
0.4875 0 0
0.5 0 0
0.5125 0 0
0.525 0 0
0.5375 0 0
0.55 0 0
0.5625 0 0
0.575 0 0
0.5875 0 0
0.6 0 0
0.6125 0 0
0.625 0 0
0.6375 0 0
0.65 0 0
0.6625 0 0
0.675 0 0
0.6875 0 0
0.7 0 0
0.7125 0 0
0.725 0 0
0.7375 0 0
0.75 0 0
0.7625 0 0
0.775 0 0
0.7875 0 0
0.8 0 0
0.8125 0 0
0.825 0 0
0.8375 0 0
0.85 0 0
0.8625 0 0
0.875 0 0
0.8875 0 0
0.9 0 0
0.9125 0 0
0.925 0 0
0.9375 0 0
0.95 0 0
0.9625 0 0
0.975 0 0
0.9875 0 0
1 0 0
0 0.0125 0
0.0125 0.0125 0
0.025 0.0125 0
0.0375 0.0125 0
0.05 0.0125 0
0.0625 0.0125 0
0.075 0.0125 0
0.0875 0.0125 0
0.1 0.0125 0
0.1125 0.0125 0
0.125 0.0125 0
0.1375 0.0125 0
0.15 0.0125 0
0.1625 0.0125 0
0.175 0.0125 0
0.1875 0.0125 0
0.2 0.0125 0
0.2125 0.0125 0
0.225 0.0125 0
0.2375 0.0125 0
0.25 0.0125 0
0.2625 0.0125 0
0.275 0.0125 0
0.2875 0.0125 0
0.3 0.0125 0
0.3125 0.0125 0
0.325 0.0125 0
0.3375 0.0125 0
0.35 0.0125 0
0.3625 0.0125 0
0.375 0.0125 0
0.3875 0.0125 0
0.4 0.0125 0
0.4125 0.0125 0
0.425 0.0125 0
0.4375 0.0125 0
0.45 0.0125 0
0.4625 0.0125 0
0.475 0.0125 0
0.4875 0.0125 0
0.5 0.0125 0
0.5125 0.0125 0
0.525 0.0125 0
0.5375 0.0125 0
0.55 0.0125 0
0.5625 0.0125 0
0.575 0.0125 0
0.5875 0.0125 0
0.6 0.0125 0
0.6125 0.0125 0
0.625 0.0125 0
0.6375 0.0125 0
0.65 0.0125 0
0.6625 0.0125 0
0.675 0.0125 0
0.6875 0.0125 0
0.7 0.0125 0
0.7125 0.0125 0
0.725 0.0125 0
0.7375 0.0125 0
0.75 0.0125 0
0.7625 0.0125 0
0.775 0.0125 0
0.7875 0.0125 0
0.8 0.0125 0
0.8125 0.0125 0
0.825 0.0125 0
0.8375 0.0125 0
0.85 0.0125 0
0.8625 0.0125 0
0.875 0.0125 0
0.8875 0.0125 0
0.9 0.0125 0
0.9125 0.0125 0
0.925 0.0125 0
0.9375 0.0125 0
0.95 0.0125 0
0.9625 0.0125 0
0.975 0.0125 0
0.9875 0.0125 0
1 0.0125 0
0 0.025 0
0.0125 0.025 0
0.025 0.025 0
0.0375 0.025 0
0.05 0.025 0
0.0625 0.025 0
0.075 0.025 0
0.0875 0.025 0
0.1 0.025 0
0.1125 0.025 0
0.125 0.025 0
0.1375 0.025 0
0.15 0.025 0
0.1625 0.025 0
0.175 0.025 0
0.1875 0.025 0
0.2 0.025 0
0.2125 0.025 0
0.225 0.025 0
0.2375 0.025 0
0.25 0.025 0
0.2625 0.025 0
0.275 0.025 0
0.2875 0.025 0
0.3 0.025 0
0.3125 0.025 0
0.325 0.025 0
0.3375 0.025 0
0.35 0.025 0
0.3625 0.025 0
0.375 0.025 0
0.3875 0.025 0
0.4 0.025 0
0.4125 0.025 0
0.425 0.025 0
0.4375 0.025 0
0.45 0.025 0
0.4625 0.025 0
0.475 0.025 0
0.4875 0.025 0
0.5 0.025 0
0.5125 0.025 0
0.525 0.025 0
0.5375 0.025 0
0.55 0.025 0
0.5625 0.025 0
0.575 0.025 0
0.5875 0.025 0
0.6 0.025 0
0.6125 0.025 0
0.625 0.025 0
0.6375 0.025 0
0.65 0.025 0
0.6625 0.025 0
0.675 0.025 0
0.6875 0.025 0
0.7 0.025 0
0.7125 0.025 0
0.725 0.025 0
0.7375 0.025 0
0.75 0.025 0
0.7625 0.025 0
0.775 0.025 0
0.7875 0.025 0
0.8 0.025 0
0.8125 0.025 0
0.825 0.025 0
0.8375 0.025 0
0.85 0.025 0
0.8625 0.025 0
0.875 0.025 0
0.8875 0.025 0
0.9 0.025 0
0.9125 0.025 0
0.925 0.025 0
0.9375 0.025 0
0.95 0.025 0
0.9625 0.025 0
0.975 0.025 0
0.9875 0.025 0
1 0.025 0
0 0.0375 0
0.0125 0.0375 0
0.025 0.0375 0
0.0375 0.0375 0
0.05 0.0375 0
0.0625 0.0375 0
0.075 0.0375 0
0.0875 0.0375 0
0.1 0.0375 0
0.1125 0.0375 0
0.125 0.0375 0
0.1375 0.0375 0
0.15 0.0375 0
0.1625 0.0375 0
0.175 0.0375 0
0.1875 0.0375 0
0.2 0.0375 0
0.2125 0.0375 0
0.225 0.0375 0
0.2375 0.0375 0
0.25 0.0375 0
0.2625 0.0375 0
0.275 0.0375 0
0.2875 0.0375 0
0.3 0.0375 0
0.3125 0.0375 0
0.325 0.0375 0
0.3375 0.0375 0
0.35 0.0375 0
0.3625 0.0375 0
0.375 0.0375 0
0.3875 0.0375 0
0.4 0.0375 0
0.4125 0.0375 0
0.425 0.0375 0
0.4375 0.0375 0
0.45 0.0375 0
0.4625 0.0375 0
0.475 0.0375 0
0.4875 0.0375 0
0.5 0.0375 0
0.5125 0.0375 0
0.525 0.0375 0
0.5375 0.0375 0
0.55 0.0375 0
0.5625 0.0375 0
0.575 0.0375 0
0.5875 0.0375 0
0.6 0.0375 0
0.6125 0.0375 0
0.625 0.0375 0
0.6375 0.0375 0
0.65 0.0375 0
0.6625 0.0375 0
0.675 0.0375 0
0.6875 0.0375 0
0.7 0.0375 0
0.7125 0.0375 0
0.725 0.0375 0
0.7375 0.0375 0
0.75 0.0375 0
0.7625 0.0375 0
0.775 0.0375 0
0.7875 0.0375 0
0.8 0.0375 0
0.8125 0.0375 0
0.825 0.0375 0
0.8375 0.0375 0
0.85 0.0375 0
0.8625 0.0375 0
0.875 0.0375 0
0.8875 0.0375 0
0.9 0.0375 0
0.9125 0.0375 0
0.925 0.0375 0
0.9375 0.0375 0
0.95 0.0375 0
0.9625 0.0375 0
0.975 0.0375 0
0.9875 0.0375 0
1 0.0375 0
0 0.05 0
0.0125 0.05 0
0.025 0.05 0
0.0375 0.05 0
0.05 0.05 0
0.0625 0.05 0
0.075 0.05 0
0.0875 0.05 0
0.1 0.05 0
0.1125 0.05 0
0.125 0.05 0
0.1375 0.05 0
0.15 0.05 0
0.1625 0.05 0
0.175 0.05 0
0.1875 0.05 0
0.2 0.05 0
0.2125 0.05 0
0.225 0.05 0
0.2375 0.05 0
0.25 0.05 0
0.2625 0.05 0
0.275 0.05 0
0.2875 0.05 0
0.3 0.05 0
0.3125 0.05 0
0.325 0.05 0
0.3375 0.05 0
0.35 0.05 0
0.3625 0.05 0
0.375 0.05 0
0.3875 0.05 0
0.4 0.05 0
0.4125 0.05 0
0.425 0.05 0
0.4375 0.05 0
0.45 0.05 0
0.4625 0.05 0
0.475 0.05 0
0.4875 0.05 0
0.5 0.05 0
0.5125 0.05 0
0.525 0.05 0
0.5375 0.05 0
0.55 0.05 0
0.5625 0.05 0
0.575 0.05 0
0.5875 0.05 0
0.6 0.05 0
0.6125 0.05 0
0.625 0.05 0
0.6375 0.05 0
0.65 0.05 0
0.6625 0.05 0
0.675 0.05 0
0.6875 0.05 0
0.7 0.05 0
0.7125 0.05 0
0.725 0.05 0
0.7375 0.05 0
0.75 0.05 0
0.7625 0.05 0
0.775 0.05 0
0.7875 0.05 0
0.8 0.05 0
0.8125 0.05 0
0.825 0.05 0
0.8375 0.05 0
0.85 0.05 0
0.8625 0.05 0
0.875 0.05 0
0.8875 0.05 0
0.9 0.05 0
0.9125 0.05 0
0.925 0.05 0
0.9375 0.05 0
0.95 0.05 0
0.9625 0.05 0
0.975 0.05 0
0.9875 0.05 0
1 0.05 0
0 0.0625 0
0.0125 0.0625 0
0.025 0.0625 0
0.0375 0.0625 0
0.05 0.0625 0
0.0625 0.0625 0
0.075 0.0625 0
0.0875 0.0625 0
0.1 0.0625 0
0.1125 0.0625 0
0.125 0.0625 0
0.1375 0.0625 0
0.15 0.0625 0
0.1625 0.0625 0
0.175 0.0625 0
0.1875 0.0625 0
0.2 0.0625 0
0.2125 0.0625 0
0.225 0.0625 0
0.2375 0.0625 0
0.25 0.0625 0
0.2625 0.0625 0
0.275 0.0625 0
0.2875 0.0625 0
0.3 0.0625 0
0.3125 0.0625 0
0.325 0.0625 0
0.3375 0.0625 0
0.35 0.0625 0
0.3625 0.0625 0
0.375 0.0625 0
0.3875 0.0625 0
0.4 0.0625 0
0.4125 0.0625 0
0.425 0.0625 0
0.4375 0.0625 0
0.45 0.0625 0
0.4625 0.0625 0
0.475 0.0625 0
0.4875 0.0625 0
0.5 0.0625 0
0.5125 0.0625 0
0.525 0.0625 0
0.5375 0.0625 0
0.55 0.0625 0
0.5625 0.0625 0
0.575 0.0625 0
0.5875 0.0625 0
0.6 0.0625 0
0.6125 0.0625 0
0.625 0.0625 0
0.6375 0.0625 0
0.65 0.0625 0
0.6625 0.0625 0
0.675 0.0625 0
0.6875 0.0625 0
0.7 0.0625 0
0.7125 0.0625 0
0.725 0.0625 0
0.7375 0.0625 0
0.75 0.0625 0
0.7625 0.0625 0
0.775 0.0625 0
0.7875 0.0625 0
0.8 0.0625 0
0.8125 0.0625 0
0.825 0.0625 0
0.8375 0.0625 0
0.85 0.0625 0
0.8625 0.0625 0
0.875 0.0625 0
0.8875 0.0625 0
0.9 0.0625 0
0.9125 0.0625 0
0.925 0.0625 0
0.9375 0.0625 0
0.95 0.0625 0
0.9625 0.0625 0
0.975 0.0625 0
0.9875 0.0625 0
1 0.0625 0
0 0.075 0
0.0125 0.075 0
0.025 0.075 0
0.0375 0.075 0
0.05 0.075 0
0.0625 0.075 0
0.075 0.075 0
0.0875 0.075 0
0.1 0.075 0
0.1125 0.075 0
0.125 0.075 0
0.1375 0.075 0
0.15 0.075 0
0.1625 0.075 0
0.175 0.075 0
0.1875 0.075 0
0.2 0.075 0
0.2125 0.075 0
0.225 0.075 0
0.2375 0.075 0
0.25 0.075 0
0.2625 0.075 0
0.275 0.075 0
0.2875 0.075 0
0.3 0.075 0
0.3125 0.075 0
0.325 0.075 0
0.3375 0.075 0
0.35 0.075 0
0.3625 0.075 0
0.375 0.075 0
0.3875 0.075 0
0.4 0.075 0
0.4125 0.075 0
0.425 0.075 0
0.4375 0.075 0
0.45 0.075 0
0.4625 0.075 0
0.475 0.075 0
0.4875 0.075 0
0.5 0.075 0
0.5125 0.075 0
0.525 0.075 0
0.5375 0.075 0
0.55 0.075 0
0.5625 0.075 0
0.575 0.075 0
0.5875 0.075 0
0.6 0.075 0
0.6125 0.075 0
0.625 0.075 0
0.6375 0.075 0
0.65 0.075 0
0.6625 0.075 0
0.675 0.075 0
0.6875 0.075 0
0.7 0.075 0
0.7125 0.075 0
0.725 0.075 0
0.7375 0.075 0
0.75 0.075 0
0.7625 0.075 0
0.775 0.075 0
0.7875 0.075 0
0.8 0.075 0
0.8125 0.075 0
0.825 0.075 0
0.8375 0.075 0
0.85 0.075 0
0.8625 0.075 0
0.875 0.075 0
0.8875 0.075 0
0.9 0.075 0
0.9125 0.075 0
0.925 0.075 0
0.9375 0.075 0
0.95 0.075 0
0.9625 0.075 0
0.975 0.075 0
0.9875 0.075 0
1 0.075 0
0 0.0875 0
0.0125 0.0875 0
0.025 0.0875 0
0.0375 0.0875 0
0.05 0.0875 0
0.0625 0.0875 0
0.075 0.0875 0
0.0875 0.0875 0
0.1 0.0875 0
0.1125 0.0875 0
0.125 0.0875 0
0.1375 0.0875 0
0.15 0.0875 0
0.1625 0.0875 0
0.175 0.0875 0
0.1875 0.0875 0
0.2 0.0875 0
0.2125 0.0875 0
0.225 0.0875 0
0.2375 0.0875 0
0.25 0.0875 0
0.2625 0.0875 0
0.275 0.0875 0
0.2875 0.0875 0
0.3 0.0875 0
0.3125 0.0875 0
0.325 0.0875 0
0.3375 0.0875 0
0.35 0.0875 0
0.3625 0.0875 0
0.375 0.0875 0
0.3875 0.0875 0
0.4 0.0875 0
0.4125 0.0875 0
0.425 0.0875 0
0.4375 0.0875 0
0.45 0.0875 0
0.4625 0.0875 0
0.475 0.0875 0
0.4875 0.0875 0
0.5 0.0875 0
0.5125 0.0875 0
0.525 0.0875 0
0.5375 0.0875 0
0.55 0.0875 0
0.5625 0.0875 0
0.575 0.0875 0
0.5875 0.0875 0
0.6 0.0875 0
0.6125 0.0875 0
0.625 0.0875 0
0.6375 0.0875 0
0.65 0.0875 0
0.6625 0.0875 0
0.675 0.0875 0
0.6875 0.0875 0
0.7 0.0875 0
0.7125 0.0875 0
0.725 0.0875 0
0.7375 0.0875 0
0.75 0.0875 0
0.7625 0.0875 0
0.775 0.0875 0
0.7875 0.0875 0
0.8 0.0875 0
0.8125 0.0875 0
0.825 0.0875 0
0.8375 0.0875 0
0.85 0.0875 0
0.8625 0.0875 0
0.875 0.0875 0
0.8875 0.0875 0
0.9 0.0875 0
0.9125 0.0875 0
0.925 0.0875 0
0.9375 0.0875 0
0.95 0.0875 0
0.9625 0.0875 0
0.975 0.0875 0
0.9875 0.0875 0
1 0.0875 0
0 0.1 0
0.0125 0.1 0
0.025 0.1 0
0.0375 0.1 0
0.05 0.1 0
0.0625 0.1 0
0.075 0.1 0
0.0875 0.1 0
0.1 0.1 0
0.1125 0.1 0
0.125 0.1 0
0.1375 0.1 0
0.15 0.1 0
0.1625 0.1 0
0.175 0.1 0
0.1875 0.1 0
0.2 0.1 0
0.2125 0.1 0
0.225 0.1 0
0.2375 0.1 0
0.25 0.1 0
0.2625 0.1 0
0.275 0.1 0
0.2875 0.1 0
0.3 0.1 0
0.3125 0.1 0
0.325 0.1 0
0.3375 0.1 0
0.35 0.1 0
0.3625 0.1 0
0.375 0.1 0
0.3875 0.1 0
0.4 0.1 0
0.4125 0.1 0
0.425 0.1 0
0.4375 0.1 0
0.45 0.1 0
0.4625 0.1 0
0.475 0.1 0
0.4875 0.1 0
0.5 0.1 0
0.5125 0.1 0
0.525 0.1 0
0.5375 0.1 0
0.55 0.1 0
0.5625 0.1 0
0.575 0.1 0
0.5875 0.1 0
0.6 0.1 0
0.6125 0.1 0
0.625 0.1 0
0.6375 0.1 0
0.65 0.1 0
0.6625 0.1 0
0.675 0.1 0
0.6875 0.1 0
0.7 0.1 0
0.7125 0.1 0
0.725 0.1 0
0.7375 0.1 0
0.75 0.1 0
0.7625 0.1 0
0.775 0.1 0
[...]
    <PointData>
      <DataArray type="Float64" NumberOfComponents="3" Name="Velocity" format="ascii">
0 0 0
0 0 0
0 0 0
0 0 0
0 0 0
0 0 0
0 0 0
0 0 0
0 0 0
0 0 0
0 0 0
0 0 0
0 0 0
0 0 0
0 0 0
0 0 0
0 0 0
0 0 0
0 0 0
0 0 0
0 0 0
0 0 0
0 0 0
0 0 0
0 0 0
0 0 0
0 0 0
0 0 0
0 0 0
0 0 0
0 0 0
0 0 0
0 0 0
0 0 0
0 0 0
0 0 0
0 0 0
0 0 0
0 0 0
0 0 0
0 0 0
0 0 0
0 0 0
0 0 0
0 0 0
0 0 0
0 0 0
0 0 0
0 0 0
0 0 0
0 0 0
0 0 0
0 0 0
0 0 0
0 0 0
0 0 0
0 0 0
0 0 0
0 0 0
0 0 0
0 0 0
0 0 0
0 0 0
0 0 0
0 0 0
0 0 0
0 0 0
0 0 0
0 0 0
0 0 0
0 0 0
0 0 0
0 0 0
0 0 0
0 0 0
0 0 0
0 0 0
0 0 0
0 0 0
0 0 0
0 0 0
0 0 0
-3.15376e+18 -1.07342e+19 0
-1.81267e+18 -9.41265e+18 0
7.99187e+17 -3.16921e+18 0
1.45771e+18 8.62129e+17 0
7.33595e+17 2.70965e+18 0
-8.02488e+17 2.40163e+18 0
-2.14763e+18 8.8159e+17 0
-2.29892e+18 -9.0697e+17 0
-1.33569e+18 -1.9292e+18 0
6.62758e+17 -1.15027e+18 0
1.96501e+18 9.60552e+17 0
8.39664e+17 3.93396e+18 0
-1.07773e+18 5.7974e+18 0
-2.15165e+18 4.57829e+18 0
-1.99658e+18 1.5693e+18 0
-2.27043e+17 -1.9369e+18 0
1.8751e+18 -4.04244e+18 0
3.02798e+18 -2.84949e+18 0
2.8372e+18 -8.53299e+17 0
9.08335e+17 -5.49156e+17 0
-1.17952e+18 -9.05852e+17 0
-1.84729e+18 -8.92181e+17 0
-1.56758e+18 -6.40303e+17 0
-8.12978e+17 -2.82379e+17 0
-2.12658e+16 8.95192e+16 0
3.69796e+17 3.83319e+17 0
5.00871e+17 4.71522e+17 0
5.12623e+17 2.26629e+17 0
4.03491e+17 -6.80883e+16 0
1.71915e+17 -1.2936e+17 0
-7.72849e+16 -7.69196e+16 0
-2.39289e+17 -3.04992e+16 0
-2.88483e+17 -7.18925e+15 0
-1.99256e+17 -2.40802e+16 0
-3.24008e+16 -5.82727e+15 0
1.51288e+17 1.22914e+17 0
3.60751e+17 2.45971e+17 0
6.04933e+17 2.47168e+17 0
8.2296e+17 1.91441e+17 0
9.5396e+17 1.43725e+17 0
8.68906e+17 1.83335e+17 0
4.3877e+17 3.89588e+17 0
-9.9089e+16 5.61279e+17 0
-5.0731e+17 4.97199e+17 0
-6.73767e+17 3.28969e+17 0
-4.86333e+17 1.88208e+17 0
-1.50225e+17 6.52385e+16 0
1.29343e+17 -4.96176e+16 0
3.20413e+17 -1.03068e+17 0
3.91032e+17 -4.18217e+16 0
3.67459e+17 2.213e+16 0
2.75951e+17 -2.32051e+16 0
1.75945e+17 -1.03501e+17 0
1.26877e+17 -1.4443e+17 0
1.25055e+17 -1.08859e+17 0
1.66791e+17 4.0347e+16 0
1.7856e+17 1.94012e+17 0
8.68331e+16 2.42958e+17 0
-6.37514e+16 2.08924e+17 0
-2.28558e+17 1.13645e+17 0
-3.54904e+17 -1.81811e+15 0
-3.90109e+17 -9.64075e+16 0
-3.5477e+17 -9.98357e+16 0
-2.69485e+17 5.81849e+16 0
-1.80343e+17 2.20714e+17 0
-1.33433e+17 2.3081e+17 0
-7.72338e+16 1.38711e+17 0
3.97755e+16 -5.3497e+15 0
1.67097e+17 -1.04321e+17 0
2.54233e+17 -6.11525e+16 0
2.44202e+17 3.80268e+16 0
8.00193e+16 1.07089e+17 0
-2.03877e+17 1.21148e+17 0
-5.73049e+17 5.53136e+16 0
-8.16451e+17 -9.54752e+16 0
-7.23032e+17 -3.36282e+17 0
-4.64891e+17 -4.62368e+17 0
-2.14124e+17 -2.68998e+17 0
-3.70534e+16 -2.51991e+16 0
0 0 0
0 0 0
-4.64111e+17 -1.1315e+19 0
-1.92612e+18 -9.7155e+18 0
-2.99356e+18 -2.64101e+18 0
-2.27393e+18 2.46882e+18 0
-1.17596e+18 5.04899e+18 0
-1.10836e+18 4.53449e+18 0
-1.4669e+18 2.2533e+18 0
-1.64733e+18 -4.66575e+17 0
-1.53705e+18 -2.36703e+18 0
-1.02349e+18 -2.18994e+18 0
-5.69777e+17 5.06356e+17 0
-6.39071e+17 6.16352e+18 0
-8.93691e+17 9.93475e+18 0
-9.95954e+17 6.97328e+18 0
-6.34216e+17 1.12894e+18 0
5.0317e+17 -3.74839e+18 0
1.76781e+18 -5.82598e+18 0
2.51132e+18 -3.27108e+18 0
2.36331e+18 1.37665e+17 0
9.53384e+17 6.21583e+17 0
-5.83175e+17 -1.93097e+17 0
-1.1111e+18 -6.8015e+17 0
-1.02977e+18 -8.5628e+17 0
-7.38554e+17 -7.38189e+17 0
-2.90855e+17 -3.93812e+17 0
2.59924e+17 1.08917e+17 0
6.70986e+17 4.64016e+17 0
6.99532e+17 3.65504e+17 0
4.7333e+17 1.16049e+17 0
1.20149e+17 1.83145e+16 0
-2.04228e+17 1.00964e+16 0
-3.44014e+17 2.91896e+16 0
-3.70944e+17 3.12784e+16 0
-3.56747e+17 -2.79525e+16 0
-3.01844e+17 -5.15364e+16 0
-2.06652e+17 5.74937e+16 0
-7.64066e+16 1.90202e+17 0
8.36606e+16 2.37652e+17 0
2.28013e+17 2.50828e+17 0
3.11116e+17 2.80711e+17 0
2.54648e+17 3.91331e+17 0
-1.97096e+16 6.46716e+17 0
-3.18704e+17 7.93046e+17 0
-4.49081e+17 5.76496e+17 0
-3.83935e+17 2.31159e+17 0
-9.63595e+16 -8.87362e+15 0
2.26243e+17 -1.37846e+17 0
3.9647e+17 -1.50003e+17 0
4.35024e+17 -5.99524e+16 0
3.62603e+17 1.17695e+17 0
2.39841e+17 2.38088e+17 0
1.27367e+17 1.56373e+17 0
1.60994e+16 -6.10886e+15 0
-1.03045e+17 -1.28019e+17 0
-1.59874e+17 -1.38221e+17 0
-8.41962e+16 3.44212e+16 0
2.16737e+16 2.50134e+17 0
5.54207e+16 3.69144e+17 0
-3.52332e+14 3.86704e+17 0
-1.63042e+17 2.98064e+17 0
-3.22753e+17 1.28218e+17 0
-3.69589e+17 -9.78407e+16 0
-3.05234e+17 -2.07245e+17 0
-1.31371e+17 -2.71284e+16 0
1.39198e+17 1.92285e+17 0
4.93674e+17 2.0077e+17 0
7.68287e+17 7.65538e+16 0
7.99265e+17 -1.02135e+17 0
7.27867e+17 -1.7138e+17 0
6.95351e+17 3.27372e+16 0
6.1782e+17 3.04021e+17 0
4.11373e+17 4.36275e+17 0
1.03519e+17 4.37389e+17 0
-2.78234e+17 3.1525e+17 0
-5.81716e+17 6.42217e+16 0
-6.54757e+17 -3.2133e+17 0
-5.65056e+17 -5.81558e+17 0
-3.80315e+17 -4.56615e+17 0
-1.69106e+17 -1.83696e+17 0
0 0 0
0 0 0
3.11286e+18 -6.75559e+18 0
-1.88307e+18 -4.81783e+18 0
-7.89502e+18 5.32562e+17 0
-7.8302e+18 4.01487e+18 0
-4.85171e+18 5.34818e+18 0
-2.12267e+18 4.25161e+18 0
-3.14791e+17 2.01371e+18 0
-9.98189e+16 -7.69597e+16 0
-1.0371e+18 -1.6436e+18 0
-2.68598e+18 -2.30942e+18 0
-3.52268e+18 -1.60366e+17 0
-2.02342e+18 6.71763e+18 0
1.73297e+17 1.15262e+19 0
1.42896e+18 7.46703e+18 0
1.80728e+18 1.44951e+17 0
1.37196e+18 -4.83515e+18 0
8.10993e+17 -6.26665e+18 0
8.12369e+17 -2.94292e+18 0
1.01658e+18 1.06632e+18 0
1.06412e+18 1.69132e+18 0
1.04809e+18 6.91284e+17 0
1.0616e+18 -1.74575e+17 0
9.04497e+17 -7.69505e+17 0
3.76645e+17 -9.56754e+17 0
-5.31128e+16 -7.68036e+17 0
8.40636e+16 -2.35068e+17 0
3.73047e+17 2.84391e+17 0
3.9871e+17 4.32581e+17 0
2.38382e+17 3.62564e+17 0
-3.06085e+16 2.27398e+17 0
-2.48918e+17 9.9522e+16 0
-2.57202e+17 5.13746e+16 0
-2.2073e+17 2.53678e+16 0
-3.04767e+17 -3.60861e+16 0
-4.27868e+17 -7.43281e+16 0
-5.08582e+17 -3.06992e+16 0
-5.51863e+17 5.30714e+16 0
-5.62661e+17 1.35255e+17 0
-5.70624e+17 2.26237e+17 0
-6.05396e+17 3.36405e+17 0
-6.25584e+17 4.8508e+17 0
-5.89796e+17 6.91584e+17 0
-4.50915e+17 7.29378e+17 0
-1.61825e+17 3.7192e+17 0
1.57377e+17 -5.98116e+16 0
3.86593e+17 -2.44841e+17 0
4.57695e+17 -2.35785e+17 0
3.02557e+17 -8.5258e+16 0
5.28044e+16 1.245e+17 0
-1.59936e+17 3.11248e+17 0
-3.00028e+17 3.76636e+17 0
-3.31835e+17 2.22309e+17 0
-3.48368e+17 7.73639e+15 0
-4.42638e+17 -1.07615e+17 0
-4.87302e+17 -1.04301e+17 0
-3.55016e+17 3.71191e+16 0
-1.31786e+17 2.36195e+17 0
9.63828e+16 4.12476e+17 0
2.21865e+17 5.12032e+17 0
1.37037e+17 4.80932e+17 0
-2.4723e+16 3.00605e+17 0
-1.30036e+17 -4.75214e+16 0
-1.17896e+17 -3.08878e+17 0
7.27033e+16 -2.28896e+17 0
5.00567e+17 -5.91491e+16 0
1.2245e+18 -5.12094e+16 0
1.78423e+18 -1.08162e+17 0
1.71949e+18 -1.33091e+17 0
1.36506e+18 -3.2262e+16 0
1.05574e+18 2.88061e+17 0
8.11696e+17 6.06661e+17 0
6.53086e+17 7.02318e+17 0
5.10509e+17 6.53252e+17 0
3.14567e+17 5.37683e+17 0
7.47725e+16 3.04251e+17 0
-1.99359e+17 -9.84032e+16 0
-4.03535e+17 -4.48494e+17 0
-4.33461e+17 -5.24236e+17 0
-2.96497e+17 -3.6246e+17 0
0 0 0
0 0 0
2.62107e+18 -2.06913e+18 0
-3.22621e+18 1.37106e+18 0
-1.0422e+19 5.29949e+18 0
-1.18463e+19 4.69508e+18 0
-9.41671e+18 1.93741e+18 0
-5.05043e+18 -5.93954e+17 0
-1.04828e+18 -1.93864e+18 0
2.89004e+17 -1.13627e+18 0
-2.68815e+17 -8.90368e+16 0
-1.95196e+18 -6.99116e+17 0
-2.81202e+18 1.62612e+17 0
-9.00586e+17 5.62527e+18 0
1.74439e+18 9.68591e+18 0
3.08498e+18 6.34159e+18 0
3.0481e+18 8.33305e+16 0
1.56065e+18 -4.59786e+18 0
1.37495e+17 -6.28051e+18 0
2.9349e+17 -3.54316e+18 0
1.23528e+18 2.60942e+16 0
2.16952e+18 8.39149e+17 0
2.97333e+18 3.0031e+17 0
3.52384e+18 -1.86121e+17 0
3.5263e+18 -5.01554e+17 0
2.68599e+18 -5.27398e+17 0
1.44762e+18 -3.51197e+17 0
2.55895e+17 -6.04965e+16 0
-5.30242e+17 2.39557e+17 0
-5.51861e+17 4.43816e+17 0
-2.72492e+17 4.81608e+17 0
-1.55668e+17 2.82263e+17 0
-7.94441e+16 2.98312e+16 0
7.8124e+16 -9.16357e+16 0
1.8881e+17 -1.14956e+17 0
1.24389e+17 -7.29503e+16 0
-3.00113e+16 -1.14032e+16 0
-1.89264e+17 2.38985e+16 0
-3.06007e+17 5.49582e+16 0
-3.32878e+17 1.03779e+17 0
-3.58735e+17 1.65749e+17 0
-4.72436e+17 2.36254e+17 0
-5.546e+17 3.25676e+17 0
-4.85848e+17 4.44392e+17 0
-2.87795e+17 4.04352e+17 0
1.79447e+16 1.75027e+16 0
2.38049e+17 -3.10323e+17 0
1.79196e+17 -1.73291e+17 0
-1.27575e+17 1.4489e+17 0
-6.51224e+17 3.60513e+17 0
-1.11727e+18 4.4544e+17 0
-1.25123e+18 3.71535e+17 0
-1.16932e+18 1.66535e+17 0
-9.87736e+17 -1.41824e+17 0
-7.86285e+17 -3.46404e+17 0
-6.44777e+17 -2.40068e+17 0
-4.89745e+17 -2.33195e+16 0
-2.47721e+17 1.03337e+17 0
5.7054e+16 2.20026e+17 0
4.0034e+17 4.06871e+17 0
6.34568e+17 5.63595e+17 0
6.1217e+17 5.89922e+17 0
4.18011e+17 4.25838e+17 0
1.36953e+17 1.13284e+16 0
-5.92636e+16 -3.91384e+17 0
1.09943e+15 -5.20076e+17 0
4.45708e+17 -5.07451e+17 0
1.40223e+18 -4.86215e+17 0
2.21827e+18 -3.37129e+17 0
2.24146e+18 5.90473e+16 0
1.76142e+18 4.81949e+17 0
1.06779e+18 7.11213e+17 0
5.16673e+17 7.54626e+17 0
4.64184e+17 6.19976e+17 0
6.05418e+17 4.73263e+17 0
6.35474e+17 4.80489e+17 0
5.23582e+17 4.49774e+17 0
2.38973e+17 1.89243e+17 0
-8.33662e+16 -1.541e+17 0
-3.0845e+17 -4.33248e+17 0
-3.19565e+17 -4.48461e+17 0
0 0 0
0 0 0
5.37357e+17 2.73158e+18 0
-4.73021e+18 7.29228e+18 0
-1.09033e+19 9.25692e+18 0
-1.30825e+19 4.20031e+18 0
-1.17157e+19 -2.63474e+18 0
-7.25066e+18 -6.00545e+18 0
-2.58114e+18 -6.0096e+18 0
-6.00915e+17 -2.74498e+18 0
-3.52695e+17 5.80088e+17 0
-8.79211e+17 7.57256e+17 0
-9.7358e+17 8.49983e+17 0
5.71081e+17 3.92172e+18 0
2.46723e+18 6.34034e+18 0
3.42731e+18 4.47369e+18 0
3.16801e+18 4.9635e+17 0
1.40604e+18 -3.41712e+18 0
-1.35343e+17 -5.52821e+18 0
2.67128e+17 -4.09842e+18 0
1.54969e+18 -1.65335e+18 0
2.64859e+18 -7.1861e+17 0
3.56563e+18 -5.39481e+17 0
4.30264e+18 -3.61226e+17 0
4.52034e+18 -1.35292e+17 0
3.87947e+18 1.86874e+17 0
2.46437e+18 4.50979e+17 0
3.59366e+17 5.02729e+17 0
-1.31288e+18 4.91491e+17 0
-1.4297e+18 5.66633e+17 0
-8.27611e+17 5.38799e+17 0
-3.43101e+17 2.1863e+17 0
2.8157e+16 -1.44148e+17 0
2.9049e+17 -2.99807e+17 0
4.29781e+17 -2.80569e+17 0
4.31911e+17 -1.18655e+17 0
3.49131e+17 4.80389e+16 0
2.3369e+17 8.16148e+16 0
1.5223e+17 6.01174e+16 0
1.7139e+17 6.15913e+16 0
1.74408e+17 8.02104e+16 0
4.45246e+16 1.10149e+17 0
-9.28375e+16 1.41338e+17 0
-1.12254e+17 1.63709e+17 0
-4.34856e+16 6.21987e+16 0
8.37056e+16 -2.78258e+17 0
5.65274e+16 -4.00704e+17 0
-3.37812e+17 1.51818e+17 0
-9.50468e+17 7.77083e+17 0
-1.63259e+18 8.72868e+17 0
-2.08633e+18 6.32653e+17 0
-2.01383e+18 2.49918e+17 0
-1.68168e+18 -2.0016e+17 0
-1.35647e+18 -6.42402e+17 0
-1.04027e+18 -8.04725e+17 0
-7.35139e+17 -4.15043e+17 0
-4.31478e+17 5.43593e+16 0
-1.19697e+17 1.31199e+17 0
2.02766e+17 1.18837e+17 0
5.38474e+17 3.20631e+17 0
7.54263e+17 5.70716e+17 0
7.16971e+17 7.03227e+17 0
4.36235e+17 5.71847e+17 0
-7.83038e+16 3.02582e+16 0
-5.32388e+17 -5.72942e+17 0
-6.3176e+17 -8.89156e+17 0
-2.46118e+17 -1.00171e+18 0
7.54842e+17 -9.93945e+17 0
1.72015e+18 -6.73347e+17 0
1.99883e+18 1.52582e+17 0
1.69868e+18 9.06219e+17 0
9.27506e+17 1.00994e+18 0
2.48522e+17 7.46967e+17 0
2.24934e+17 4.00543e+17 0
4.91028e+17 1.91413e+17 0
6.8109e+17 3.40323e+17 0
7.26217e+17 5.36711e+17 0
5.57507e+17 4.70014e+17 0
2.59494e+17 1.9263e+17 0
-8.32853e+16 -2.43047e+17 0
-2.45045e+17 -4.39696e+17 0
0 0 0
0 0 0
-6.61455e+17 7.63375e+18 0
-5.16976e+18 1.13869e+19 0
-9.6679e+18 1.0002e+19 0
-1.02989e+19 2.22143e+18 0
-8.59343e+18 -5.81967e+18 0
-6.08232e+18 -7.98614e+18 0
-3.82718e+18 -6.60508e+18 0
-2.88963e+18 -4.00356e+18 0
-2.40923e+18 -1.3528e+18 0
-1.52552e+18 1.75973e+17 0
-5.43157e+17 1.27644e+18 0
2.33239e+17 2.64228e+18 0
9.89414e+17 3.41598e+18 0
1.91112e+18 2.74005e+18 0
2.24681e+18 9.36277e+17 0
1.24494e+18 -1.67356e+18 0
1.09819e+17 -3.67043e+18 0
4.57248e+16 -3.63531e+18 0
4.90089e+17 -2.64233e+18 0
8.80338e+17 -1.76565e+18 0
1.1981e+18 -1.00155e+18 0
1.42502e+18 -3.46323e+17 0
1.57128e+18 2.46413e+17 0
1.64706e+18 8.23056e+17 0
1.25017e+18 1.23277e+18 0
-2.15777e+16 1.32471e+18 0
-1.24885e+18 1.20217e+18 0
-1.51234e+18 9.68461e+17 0
-1.19529e+18 5.99751e+17 0
-6.80976e+17 7.22173e+16 0
-2.0215e+17 -3.67586e+17 0
8.42213e+15 -4.73105e+17 0
7.42862e+16 -3.62345e+17 0
1.18986e+17 -1.53309e+17 0
1.66966e+17 1.4799e+16 0
2.42669e+17 2.77731e+15 0
3.13914e+17 -6.71957e+16 0
3.4852e+17 -7.29416e+16 0
3.39536e+17 -1.95274e+16 0
2.80013e+17 8.79799e+16 0
1.99264e+17 1.60287e+17 0
1.26599e+17 1.08102e+17 0
6.78714e+16 -5.28543e+16 0
2.89354e+16 -3.06862e+17 0
-1.88742e+17 -2.11282e+17 0
-7.83694e+17 6.76525e+17 0
-1.43188e+18 1.4337e+18 0
-1.80927e+18 1.13737e+18 0
-1.86551e+18 4.15923e+17 0
-1.55026e+18 -1.02241e+17 0
-1.15073e+18 -5.31393e+17 0
-9.54177e+17 -9.85801e+17 0
-8.52946e+17 -1.10342e+18 0
-7.39398e+17 -5.22206e+17 0
-5.76777e+17 7.83687e+16 0
-3.28329e+17 1.88281e+16 0
-8.0074e+16 -1.50163e+17 0
8.19676e+16 1.2206e+17 0
9.74558e+16 5.6272e+17 0
-9.39498e+16 8.99038e+17 0
-5.39261e+17 8.06557e+17 0
-1.28549e+18 -3.91825e+16 0
-1.94032e+18 -9.71728e+17 0
-2.11145e+18 -1.32463e+18 0
-1.79565e+18 -1.39103e+18 0
-9.89662e+17 -1.4641e+18 0
-6.04026e+16 -1.17982e+18 0
6.25235e+17 -1.74184e+17 0
9.58568e+17 7.75513e+17 0
8.30912e+17 8.91977e+17 0
5.2301e+17 5.82735e+17 0
3.15602e+17 2.55316e+17 0
2.70127e+17 1.01693e+17 0
4.4802e+17 3.13843e+17 0
6.44181e+17 6.0098e+17 0
6.53506e+17 6.72318e+17 0
4.89091e+17 4.82701e+17 0
1.64028e+17 -1.30288e+16 0
-7.96724e+16 -3.34165e+17 0
0 0 0
0 0 0
-1.72518e+18 1.11396e+19 0
-5.01153e+18 1.32878e+19 0
-7.25803e+18 8.81105e+18 0
-5.86364e+18 7.59999e+16 0
-3.61853e+18 -7.18201e+18 0
-3.31288e+18 -7.22761e+18 0
-3.89289e+18 -4.82269e+18 0
-4.30474e+18 -4.72913e+18 0
-3.94055e+18 -4.55276e+18 0
-2.19242e+18 -1.89944e+18 0
-5.37661e+17 9.21821e+17 0
-4.53607e+17 1.60198e+18 0
-6.45557e+17 1.36177e+18 0
1.8119e+17 1.42192e+18 0
1.06263e+18 1.1246e+18 0
1.03475e+18 -1.8804e+17 0
4.87381e+17 -1.67158e+18 0
-1.89667e+17 -2.48162e+18 0
-9.06894e+17 -2.57e+18 0
-1.5748e+18 -1.88856e+18 0
-2.09967e+18 -9.3518e+17 0
-2.38778e+18 -2.07729e+17 0
-2.18638e+18 4.26464e+17 0
-1.24275e+18 1.10007e+18 0
-3.154e+17 1.65582e+18 0
-1.62867e+17 1.93642e+18 0
-4.29835e+17 1.8815e+18 0
-7.60991e+17 1.43066e+18 0
-9.19873e+17 7.49399e+17 0
-6.70019e+17 3.24245e+15 0
-3.37675e+17 -5.34165e+17 0
-2.49088e+17 -5.89177e+17 0
-2.47752e+17 -4.00476e+17 0
-1.77166e+17 -2.06744e+17 0
-3.91078e+16 -8.82927e+16 0
1.64645e+17 -1.25433e+17 0
3.16581e+17 -1.94443e+17 0
2.99187e+17 -1.71603e+17 0
2.36602e+17 -6.3516e+16 0
2.52966e+17 1.23214e+17 0
2.71208e+17 2.4482e+17 0
2.14255e+17 1.57534e+17 0
1.0962e+17 -3.66052e+16 0
-1.51857e+16 -2.3556e+17 0
-2.99488e+17 -2.67501e+16 0
-8.82611e+17 1.0024e+18 0
-1.35685e+18 1.7472e+18 0
-1.31449e+18 1.10297e+18 0
-9.66857e+17 6.72843e+16 0
-5.25287e+17 -3.62242e+17 0
-2.0917e+17 -5.92591e+17 0
-2.37901e+17 -1.03074e+18 0
-4.22006e+17 -1.19284e+18 0
-5.72014e+17 -5.95021e+17 0
-6.24589e+17 -1.02805e+16 0
-5.16396e+17 -2.11599e+17 0
-4.16306e+17 -5.1787e+17 0
-4.93192e+17 -2.47989e+17 0
-7.07185e+17 3.45269e+17 0
-1.01842e+18 1.00913e+18 0
-1.47343e+18 1.1266e+18 0
-2.11874e+18 8.07218e+16 0
-2.68289e+18 -1.11016e+18 0
-2.89445e+18 -1.42768e+18 0
-2.80604e+18 -1.41313e+18 0
-2.47031e+18 -1.6078e+18 0
-1.88736e+18 -1.52421e+18 0
-1.05731e+18 -6.74834e+17 0
-2.33061e+17 2.15881e+17 0
3.32481e+17 4.23498e+17 0
5.15172e+17 2.99139e+17 0
1.90874e+17 1.93929e+17 0
-1.36868e+17 1.97783e+17 0
3.54945e+16 4.00621e+17 0
3.78328e+17 6.4814e+17 0
5.62001e+17 7.8604e+17 0
5.53876e+17 6.80738e+17 0
3.21319e+17 1.9865e+17 0
6.86019e+16 -1.86252e+17 0
0 0 0
0 0 0
-3.40364e+18 1.17514e+19 0
-4.72224e+18 1.26275e+19 0
-4.216e+18 6.9603e+18 0
-2.1451e+18 -9.1842e+17 0
-3.59648e+17 -6.28641e+18 0
-7.09787e+17 -4.42146e+18 0
-1.88477e+18 -1.76009e+18 0
-2.57387e+18 -4.73882e+18 0
-2.44883e+18 -7.68487e+18 0
-1.18142e+18 -4.92544e+18 0
2.59971e+16 -7.34038e+17 0
-2.89524e+16 6.15863e+17 0
-3.94207e+17 6.26603e+17 0
-1.1771e+17 8.00522e+17 0
3.93619e+17 7.82792e+17 0
7.32857e+17 2.18582e+17 0
6.1174e+17 -4.96074e+17 0
-2.57996e+17 -9.65143e+17 0
-1.60462e+18 -1.06548e+18 0
-3.1564e+18 -6.73954e+17 0
-4.29812e+18 -1.89673e+17 0
-4.41455e+18 -1.17569e+16 0
-3.61817e+18 1.8776e+17 0
-2.02145e+18 7.36844e+17 0
-3.52753e+17 1.38179e+18 0
6.59565e+17 1.86888e+18 0
1.05252e+18 2.03938e+18 0
8.63118e+17 1.73457e+18 0
4.54312e+17 1.07268e+18 0
1.89045e+17 1.71922e+17 0
5.42731e+16 -5.37569e+17 0
3.69532e+16 -6.25671e+17 0
9.35861e+16 -4.35154e+17 0
1.80673e+17 -3.08789e+17 0
2.68309e+17 -2.38406e+17 0
3.26592e+17 -2.15834e+17 0
2.97764e+17 -1.89087e+17 0
1.24066e+17 -1.06177e+17 0
-3.44372e+16 1.81934e+16 0
-1.76796e+16 1.69319e+17 0
7.24999e+16 2.57233e+17 0
1.34263e+17 1.91967e+17 0
1.45106e+17 1.51475e+16 0
8.25224e+16 -2.316e+17 0
-7.74381e+16 -1.31801e+17 0
-3.58728e+17 7.31018e+17 0
-5.10389e+17 1.35009e+18 0
-2.81465e+17 7.18632e+17 0
9.75862e+16 -1.41229e+17 0
3.96304e+17 -2.07386e+17 0
5.10332e+17 -1.49177e+17 0
3.35314e+17 -6.3594e+17 0
5.48533e+16 -1.02332e+18 0
-1.47444e+17 -6.66957e+17 0
-2.73861e+17 -2.70578e+17 0
-3.26676e+17 -5.37904e+17 0
-4.30769e+17 -9.15183e+17 0
-7.11016e+17 -8.48663e+17 0
-1.03099e+18 -2.75973e+17 0
-1.25427e+18 8.65262e+17 0
-1.33122e+18 1.52862e+18 0
-1.21218e+18 6.67687e+17 0
-1.15993e+18 -5.10649e+17 0
-1.43721e+18 -7.99494e+17 0
-1.88047e+18 -8.05717e+17 0
-2.32612e+18 -1.13619e+18 0
-2.52472e+18 -1.37418e+18 0
-2.22682e+18 -1.10295e+18 0
-1.65036e+18 -6.46628e+17 0
-1.01331e+18 -3.29339e+17 0
-5.99958e+17 -6.6614e+16 0
-6.94569e+17 2.26018e+17 0
-8.09537e+17 4.73363e+17 0
-4.57255e+17 6.00228e+17 0
2.95173e+16 6.83749e+17 0
3.1802e+17 8.01065e+17 0
4.02303e+17 7.51364e+17 0
2.76416e+17 3.33835e+17 0
9.18252e+16 -5.03455e+16 0
0 0 0
0 0 0
-4.07041e+18 9.74628e+18 0
-3.66812e+18 9.36383e+18 0
-1.29039e+18 3.87365e+18 0
5.65492e+17 -1.70327e+18 0
1.52576e+18 -4.35407e+18 0
1.21666e+18 -1.06587e+18 0
4.58994e+17 1.31856e+18 0
7.35949e+16 -4.04351e+18 0
7.35759e+15 -9.39888e+18 0
2.07183e+17 -6.99434e+18 0
4.35465e+17 -2.09183e+18 0
4.546e+17 4.66968e+16 0
3.50371e+17 5.79782e+17 0
2.08564e+17 6.65956e+17 0
2.05289e+17 4.73702e+17 0
5.16657e+17 1.71499e+17 0
6.3251e+17 1.48094e+16 0
4.26874e+16 2.59093e+17 0
-1.17066e+18 5.97185e+17 0
-2.92537e+18 7.21917e+17 0
-4.2099e+18 4.84531e+17 0
-4.0127e+18 -2.63729e+17 0
-2.81848e+18 -7.4549e+17 0
-1.11197e+18 -1.83376e+17 0
5.55335e+17 7.69362e+17 0
1.63193e+18 1.45948e+18 0
2.11203e+18 1.81132e+18 0
1.98989e+18 1.74925e+18 0
1.48747e+18 1.25811e+18 0
8.26773e+17 3.2273e+17 0
3.01305e+17 -4.95235e+17 0
2.04589e+17 -6.3414e+17 0
3.12456e+17 -4.69544e+17 0
4.00738e+17 -3.77007e+17 0
4.21216e+17 -3.03174e+17 0
3.25671e+17 -1.94689e+17 0
1.39161e+17 -7.01891e+16 0
-1.13257e+17 5.16921e+16 0
-3.02782e+17 1.48194e+17 0
-3.00617e+17 1.96556e+17 0
-1.68112e+17 1.87819e+17 0
3.33833e+16 1.13024e+17 0
2.05561e+17 -5.73456e+16 0
2.50113e+17 -3.52806e+17 0
2.41879e+17 -3.8493e+17 0
2.55695e+17 2.3471e+17 0
3.53079e+17 7.25968e+17 0
5.9555e+17 3.08699e+17 0
8.45348e+17 -1.81784e+17 0
9.64715e+17 8.9831e+16 0
9.46479e+17 3.3911e+17 0
7.8347e+17 -2.18382e+17 0
5.52415e+17 -8.25979e+17 0
3.30047e+17 -7.27016e+17 0
1.26535e+17 -4.92379e+17 0
-4.79496e+16 -6.92952e+17 0
-3.31084e+17 -1.04411e+18 0
-8.60548e+17 -1.26123e+18 0
-1.33975e+18 -8.98025e+17 0
-1.47208e+18 4.91808e+17 0
-1.13311e+18 1.56748e+18 0
-1.98375e+17 9.88219e+17 0
5.94656e+17 2.40741e+16 0
5.0851e+17 -5.48968e+16 0
-1.47249e+17 7.9801e+16 0
-1.06306e+18 -2.43338e+17 0
-1.9055e+18 -7.49535e+17 0
-2.34114e+18 -1.16401e+18 0
-2.39727e+18 -1.29922e+18 0
-2.1012e+18 -9.67607e+17 0
-1.72244e+18 -3.91416e+17 0
-1.53051e+18 2.07124e+17 0
-1.29436e+18 6.3547e+17 0
-7.82923e+17 7.01075e+17 0
-2.51342e+17 6.52644e+17 0
4.52289e+16 7.38883e+17 0
1.56352e+17 7.25521e+17 0
1.31588e+17 3.78285e+17 0
5.23373e+16 2.66274e+16 0
0 0 0
0 0 0
-2.09911e+18 5.4016e+18 0
-1.21539e+18 3.4544e+18 0
7.70238e+17 -1.02501e+18 0
1.97686e+18 -3.22001e+18 0
2.38024e+18 -2.60616e+18 0
1.95615e+18 1.34097e+18 0
1.40025e+18 3.14909e+18 0
1.40823e+18 -2.65409e+18 0
1.3694e+18 -8.3446e+18 0