<?xml version="1.0"?>
<VTKFile type="UnstructuredGrid">
  <UnstructuredGrid>
  <Piece NumberOfPoints="961"  NumberOfCells="225">
    <Points>
      <DataArray type="Float64" NumberOfComponents="3" format="ascii">
0 0 0
0.0333333 0 0
0.0666667 0 0
0.1 0 0
0.133333 0 0
0.166667 0 0
0.2 0 0
0.233333 0 0
0.266667 0 0
0.3 0 0
0.333333 0 0
0.366667 0 0
0.4 0 0
0.433333 0 0
0.466667 0 0
0.5 0 0
0.533333 0 0
0.566667 0 0
0.6 0 0
0.633333 0 0
0.666667 0 0
0.7 0 0
0.733333 0 0
0.766667 0 0
0.8 0 0
0.833333 0 0
0.866667 0 0
0.9 0 0
0.933333 0 0
0.966667 0 0
1 0 0
0 0.0333333 0
0.0333333 0.0333333 0
0.0666667 0.0333333 0
0.1 0.0333333 0
0.133333 0.0333333 0
0.166667 0.0333333 0
0.2 0.0333333 0
0.233333 0.0333333 0
0.266667 0.0333333 0
0.3 0.0333333 0
0.333333 0.0333333 0
0.366667 0.0333333 0
0.4 0.0333333 0
0.433333 0.0333333 0
0.466667 0.0333333 0
0.5 0.0333333 0
0.533333 0.0333333 0
0.566667 0.0333333 0
0.6 0.0333333 0
0.633333 0.0333333 0
0.666667 0.0333333 0
0.7 0.0333333 0
0.733333 0.0333333 0
0.766667 0.0333333 0
0.8 0.0333333 0
0.833333 0.0333333 0
0.866667 0.0333333 0
0.9 0.0333333 0
0.933333 0.0333333 0
0.966667 0.0333333 0
1 0.0333333 0
0 0.0666667 0
0.0333333 0.0666667 0
0.0666667 0.0666667 0
0.1 0.0666667 0
0.133333 0.0666667 0
0.166667 0.0666667 0
0.2 0.0666667 0
0.233333 0.0666667 0
0.266667 0.0666667 0
0.3 0.0666667 0
0.333333 0.0666667 0
0.366667 0.0666667 0
0.4 0.0666667 0
0.433333 0.0666667 0
0.466667 0.0666667 0
0.5 0.0666667 0
0.533333 0.0666667 0
0.566667 0.0666667 0
0.6 0.0666667 0
0.633333 0.0666667 0
0.666667 0.0666667 0
0.7 0.0666667 0
0.733333 0.0666667 0
0.766667 0.0666667 0
0.8 0.0666667 0
0.833333 0.0666667 0
0.866667 0.0666667 0
0.9 0.0666667 0
0.933333 0.0666667 0
0.966667 0.0666667 0
1 0.0666667 0
0 0.1 0
0.0333333 0.1 0
0.0666667 0.1 0
0.1 0.1 0
0.133333 0.1 0
0.166667 0.1 0
0.2 0.1 0
0.233333 0.1 0
0.266667 0.1 0
0.3 0.1 0
0.333333 0.1 0
0.366667 0.1 0
0.4 0.1 0
0.433333 0.1 0
0.466667 0.1 0
0.5 0.1 0
0.533333 0.1 0
0.566667 0.1 0
0.6 0.1 0
0.633333 0.1 0
0.666667 0.1 0
0.7 0.1 0
0.733333 0.1 0
0.766667 0.1 0
0.8 0.1 0
0.833333 0.1 0
0.866667 0.1 0
0.9 0.1 0
0.933333 0.1 0
0.966667 0.1 0
1 0.1 0
0 0.133333 0
0.0333333 0.133333 0
0.0666667 0.133333 0
0.1 0.133333 0
0.133333 0.133333 0
0.166667 0.133333 0
0.2 0.133333 0
0.233333 0.133333 0
0.266667 0.133333 0
0.3 0.133333 0
0.333333 0.133333 0
0.366667 0.133333 0
0.4 0.133333 0
0.433333 0.133333 0
0.466667 0.133333 0
0.5 0.133333 0
0.533333 0.133333 0
0.566667 0.133333 0
0.6 0.133333 0
0.633333 0.133333 0
0.666667 0.133333 0
0.7 0.133333 0
0.733333 0.133333 0
0.766667 0.133333 0
0.8 0.133333 0
0.833333 0.133333 0
0.866667 0.133333 0
0.9 0.133333 0
0.933333 0.133333 0
0.966667 0.133333 0
1 0.133333 0
0 0.166667 0
0.0333333 0.166667 0
0.0666667 0.166667 0
0.1 0.166667 0
0.133333 0.166667 0
0.166667 0.166667 0
0.2 0.166667 0
0.233333 0.166667 0
0.266667 0.166667 0
0.3 0.166667 0
0.333333 0.166667 0
0.366667 0.166667 0
0.4 0.166667 0
0.433333 0.166667 0
0.466667 0.166667 0
0.5 0.166667 0
0.533333 0.166667 0
0.566667 0.166667 0
0.6 0.166667 0
0.633333 0.166667 0
0.666667 0.166667 0
0.7 0.166667 0
0.733333 0.166667 0
0.766667 0.166667 0
0.8 0.166667 0
0.833333 0.166667 0
0.866667 0.166667 0
0.9 0.166667 0
0.933333 0.166667 0
0.966667 0.166667 0
1 0.166667 0
0 0.2 0
0.0333333 0.2 0
0.0666667 0.2 0
0.1 0.2 0
0.133333 0.2 0
0.166667 0.2 0
0.2 0.2 0
0.233333 0.2 0
0.266667 0.2 0
0.3 0.2 0
0.333333 0.2 0
0.366667 0.2 0
0.4 0.2 0
0.433333 0.2 0
0.466667 0.2 0
0.5 0.2 0
0.533333 0.2 0
0.566667 0.2 0
0.6 0.2 0
0.633333 0.2 0
0.666667 0.2 0
0.7 0.2 0
0.733333 0.2 0
0.766667 0.2 0
0.8 0.2 0
0.833333 0.2 0
0.866667 0.2 0
0.9 0.2 0
0.933333 0.2 0
0.966667 0.2 0
1 0.2 0
0 0.233333 0
0.0333333 0.233333 0
0.0666667 0.233333 0
0.1 0.233333 0
0.133333 0.233333 0
0.166667 0.233333 0
0.2 0.233333 0
0.233333 0.233333 0
0.266667 0.233333 0
0.3 0.233333 0
0.333333 0.233333 0
0.366667 0.233333 0
0.4 0.233333 0
0.433333 0.233333 0
0.466667 0.233333 0
0.5 0.233333 0
0.533333 0.233333 0
0.566667 0.233333 0
0.6 0.233333 0
0.633333 0.233333 0
0.666667 0.233333 0
0.7 0.233333 0
0.733333 0.233333 0
0.766667 0.233333 0
0.8 0.233333 0
0.833333 0.233333 0
0.866667 0.233333 0
0.9 0.233333 0
0.933333 0.233333 0
0.966667 0.233333 0
1 0.233333 0
0 0.266667 0
0.0333333 0.266667 0
0.0666667 0.266667 0
0.1 0.266667 0
0.133333 0.266667 0
0.166667 0.266667 0
0.2 0.266667 0
0.233333 0.266667 0
0.266667 0.266667 0
0.3 0.266667 0
0.333333 0.266667 0
0.366667 0.266667 0
0.4 0.266667 0
0.433333 0.266667 0
0.466667 0.266667 0
0.5 0.266667 0
0.533333 0.266667 0
0.566667 0.266667 0
0.6 0.266667 0
0.633333 0.266667 0
0.666667 0.266667 0
0.7 0.266667 0
0.733333 0.266667 0
0.766667 0.266667 0
0.8 0.266667 0
0.833333 0.266667 0
0.866667 0.266667 0
0.9 0.266667 0
0.933333 0.266667 0
0.966667 0.266667 0
1 0.266667 0
0 0.3 0
0.0333333 0.3 0
0.0666667 0.3 0
0.1 0.3 0
0.133333 0.3 0
0.166667 0.3 0
0.2 0.3 0
0.233333 0.3 0
0.266667 0.3 0
0.3 0.3 0
0.333333 0.3 0
0.366667 0.3 0
0.4 0.3 0
0.433333 0.3 0
0.466667 0.3 0
0.5 0.3 0
0.533333 0.3 0
0.566667 0.3 0
0.6 0.3 0
0.633333 0.3 0
0.666667 0.3 0
0.7 0.3 0
0.733333 0.3 0
0.766667 0.3 0
0.8 0.3 0
0.833333 0.3 0
0.866667 0.3 0
0.9 0.3 0
0.933333 0.3 0
0.966667 0.3 0
1 0.3 0
0 0.333333 0
0.0333333 0.333333 0
0.0666667 0.333333 0
0.1 0.333333 0
0.133333 0.333333 0
0.166667 0.333333 0
0.2 0.333333 0
0.233333 0.333333 0
0.266667 0.333333 0
0.3 0.333333 0
0.333333 0.333333 0
0.366667 0.333333 0
0.4 0.333333 0
0.433333 0.333333 0
0.466667 0.333333 0
0.5 0.333333 0
0.533333 0.333333 0
0.566667 0.333333 0
0.6 0.333333 0
0.633333 0.333333 0
0.666667 0.333333 0
0.7 0.333333 0
0.733333 0.333333 0
0.766667 0.333333 0
0.8 0.333333 0
0.833333 0.333333 0
0.866667 0.333333 0
0.9 0.333333 0
0.933333 0.333333 0
0.966667 0.333333 0
1 0.333333 0
0 0.366667 0
0.0333333 0.366667 0
0.0666667 0.366667 0
0.1 0.366667 0
0.133333 0.366667 0
0.166667 0.366667 0
0.2 0.366667 0
0.233333 0.366667 0
0.266667 0.366667 0
0.3 0.366667 0
0.333333 0.366667 0
0.366667 0.366667 0
0.4 0.366667 0
0.433333 0.366667 0
0.466667 0.366667 0
0.5 0.366667 0
0.533333 0.366667 0
0.566667 0.366667 0
0.6 0.366667 0
0.633333 0.366667 0
0.666667 0.366667 0
0.7 0.366667 0
0.733333 0.366667 0
0.766667 0.366667 0
0.8 0.366667 0
0.833333 0.366667 0
0.866667 0.366667 0
0.9 0.366667 0
0.933333 0.366667 0
0.966667 0.366667 0
1 0.366667 0
0 0.4 0
0.0333333 0.4 0
0.0666667 0.4 0
0.1 0.4 0
0.133333 0.4 0
0.166667 0.4 0
0.2 0.4 0
0.233333 0.4 0
0.266667 0.4 0
0.3 0.4 0
0.333333 0.4 0
0.366667 0.4 0
0.4 0.4 0
0.433333 0.4 0
0.466667 0.4 0
0.5 0.4 0
0.533333 0.4 0
0.566667 0.4 0
0.6 0.4 0
0.633333 0.4 0
0.666667 0.4 0
0.7 0.4 0
0.733333 0.4 0
0.766667 0.4 0
0.8 0.4 0
0.833333 0.4 0
0.866667 0.4 0
0.9 0.4 0
0.933333 0.4 0
0.966667 0.4 0
1 0.4 0
0 0.433333 0
0.0333333 0.433333 0
0.0666667 0.433333 0
0.1 0.433333 0
0.133333 0.433333 0
0.166667 0.433333 0
0.2 0.433333 0
0.233333 0.433333 0
0.266667 0.433333 0
0.3 0.433333 0
0.333333 0.433333 0
0.366667 0.433333 0
0.4 0.433333 0
0.433333 0.433333 0
0.466667 0.433333 0
0.5 0.433333 0
0.533333 0.433333 0
0.566667 0.433333 0
0.6 0.433333 0
0.633333 0.433333 0
0.666667 0.433333 0
0.7 0.433333 0
0.733333 0.433333 0
0.766667 0.433333 0
0.8 0.433333 0
0.833333 0.433333 0
0.866667 0.433333 0
0.9 0.433333 0
0.933333 0.433333 0
0.966667 0.433333 0
1 0.433333 0
0 0.466667 0
0.0333333 0.466667 0
0.0666667 0.466667 0
0.1 0.466667 0
0.133333 0.466667 0
0.166667 0.466667 0
0.2 0.466667 0
0.233333 0.466667 0
0.266667 0.466667 0
0.3 0.466667 0
0.333333 0.466667 0
0.366667 0.466667 0
0.4 0.466667 0
0.433333 0.466667 0
0.466667 0.466667 0
0.5 0.466667 0
0.533333 0.466667 0
0.566667 0.466667 0
0.6 0.466667 0
0.633333 0.466667 0
0.666667 0.466667 0
0.7 0.466667 0
0.733333 0.466667 0
0.766667 0.466667 0
0.8 0.466667 0
0.833333 0.466667 0
0.866667 0.466667 0
0.9 0.466667 0
0.933333 0.466667 0
0.966667 0.466667 0
1 0.466667 0
0 0.5 0
0.0333333 0.5 0
0.0666667 0.5 0
0.1 0.5 0
0.133333 0.5 0
0.166667 0.5 0
0.2 0.5 0
0.233333 0.5 0
0.266667 0.5 0
0.3 0.5 0
0.333333 0.5 0
0.366667 0.5 0
0.4 0.5 0
0.433333 0.5 0
0.466667 0.5 0
0.5 0.5 0
0.533333 0.5 0
0.566667 0.5 0
0.6 0.5 0
0.633333 0.5 0
0.666667 0.5 0
0.7 0.5 0
0.733333 0.5 0
0.766667 0.5 0
0.8 0.5 0
0.833333 0.5 0
0.866667 0.5 0
0.9 0.5 0
0.933333 0.5 0
0.966667 0.5 0
1 0.5 0
0 0.533333 0
0.0333333 0.533333 0
0.0666667 0.533333 0
0.1 0.533333 0
0.133333 0.533333 0
0.166667 0.533333 0
0.2 0.533333 0
0.233333 0.533333 0
0.266667 0.533333 0
0.3 0.533333 0
0.333333 0.533333 0
0.366667 0.533333 0
0.4 0.533333 0
0.433333 0.533333 0
0.466667 0.533333 0
0.5 0.533333 0
0.533333 0.533333 0
0.566667 0.533333 0
0.6 0.533333 0
0.633333 0.533333 0
0.666667 0.533333 0
0.7 0.533333 0
0.733333 0.533333 0
0.766667 0.533333 0
0.8 0.533333 0
0.833333 0.533333 0
0.866667 0.533333 0
0.9 0.533333 0
0.933333 0.533333 0
0.966667 0.533333 0
1 0.533333 0
0 0.566667 0
0.0333333 0.566667 0
0.0666667 0.566667 0
0.1 0.566667 0
0.133333 0.566667 0
0.166667 0.566667 0
0.2 0.566667 0
0.233333 0.566667 0
0.266667 0.566667 0
0.3 0.566667 0
0.333333 0.566667 0
0.366667 0.566667 0
0.4 0.566667 0
0.433333 0.566667 0
0.466667 0.566667 0
0.5 0.566667 0
0.533333 0.566667 0
0.566667 0.566667 0
0.6 0.566667 0
0.633333 0.566667 0
0.666667 0.566667 0
0.7 0.566667 0
0.733333 0.566667 0
0.766667 0.566667 0
0.8 0.566667 0
0.833333 0.566667 0
0.866667 0.566667 0
0.9 0.566667 0
0.933333 0.566667 0
0.966667 0.566667 0
1 0.566667 0
0 0.6 0
0.0333333 0.6 0
0.0666667 0.6 0
0.1 0.6 0
0.133333 0.6 0
0.166667 0.6 0
0.2 0.6 0
0.233333 0.6 0
0.266667 0.6 0
0.3 0.6 0
0.333333 0.6 0
0.366667 0.6 0
0.4 0.6 0
0.433333 0.6 0
0.466667 0.6 0
0.5 0.6 0
0.533333 0.6 0
0.566667 0.6 0
0.6 0.6 0
0.633333 0.6 0
0.666667 0.6 0
0.7 0.6 0
0.733333 0.6 0
0.766667 0.6 0
0.8 0.6 0
0.833333 0.6 0
0.866667 0.6 0
0.9 0.6 0
0.933333 0.6 0
0.966667 0.6 0
1 0.6 0
0 0.633333 0
0.0333333 0.633333 0
0.0666667 0.633333 0
0.1 0.633333 0
0.133333 0.633333 0
0.166667 0.633333 0
0.2 0.633333 0
0.233333 0.633333 0
0.266667 0.633333 0
[...]
    <PointData>
      <DataArray type="Float64" NumberOfComponents="3" Name="Velocity" format="ascii">
0 0 0
0 0 0
0 0 0
0 0 0
0 0 0
0 0 0
0 0 0
0 0 0
0 0 0
0 0 0
0 0 0
0 0 0
0 0 0
0 0 0
0 0 0
0 0 0
0 0 0
0 0 0
0 0 0
0 0 0
0 0 0
0 0 0
0 0 0
0 0 0
0 0 0
0 0 0
0 0 0
0 0 0
0 0 0
0 0 0
0 0 0
0 0 0
-0.000489986 0.000443525 0
-0.00148721 0.000992267 0
-0.00313764 0.00153005 0
-0.00558724 0.00194069 0
-0.00849421 0.00218351 0
-0.0115168 0.0022178 0
-0.0145315 0.00212022 0
-0.0174147 0.00196744 0
-0.0200593 0.00175918 0
-0.0223583 0.0014952 0
-0.0242737 0.00119676 0
-0.0257678 0.000885094 0
-0.0268149 0.000560912 0
-0.0273891 0.000224907 0
-0.0274834 -0.00011636 0
-0.0270905 -0.000456329 0
-0.0262262 -0.000783751 0
-0.024906 -0.00108738 0
-0.0231712 -0.00136765 0
-0.0210629 -0.00162501 0
-0.0186329 -0.00183344 0
-0.0159331 -0.00196693 0
-0.013084 -0.00203892 0
-0.0102063 -0.0020629 0
-0.00739447 -0.0019726 0
-0.00474333 -0.00170179 0
-0.0025558 -0.00129335 0
-0.00113482 -0.000790165 0
-0.00033226 -0.000317344 0
0 0 0
0 0 0
-0.000743701 0.00114588 0
-0.0031382 0.0028276 0
-0.00687197 0.00449509 0
-0.0116335 0.00559829 0
-0.0170051 0.00620137 0
-0.0225689 0.00636853 0
-0.028073 0.00619675 0
-0.0332654 0.00578299 0
-0.038002 0.00517941 0
-0.0421389 0.00443818 0
-0.0456001 0.0035951 0
-0.0483093 0.00268595 0
-0.0502131 0.00172307 0
-0.0512583 0.000718775 0
-0.0514304 -0.000302965 0
-0.0507154 -0.00131817 0
-0.0491385 -0.00229923 0
-0.0467249 -0.00321854 0
-0.0435543 -0.00405616 0
-0.0397063 -0.00479215 0
-0.0352928 -0.00539408 0
-0.0304255 -0.00582952 0
-0.0252655 -0.00605842 0
-0.0199741 -0.0060407 0
-0.0148013 -0.00572136 0
-0.00999726 -0.00504538 0
-0.00585633 -0.00395655 0
-0.00267297 -0.00239864 0
-0.000652431 -0.000902762 0
0 0 0
0 0 0
-0.00132487 0.00302306 0
-0.00520214 0.00650842 0
-0.0108934 0.0096546 0
-0.0176602 0.0116601 0
-0.0250795 0.0127025 0
-0.0327281 0.0129592 0
-0.0402619 0.0125814 0
-0.0473369 0.0117203 0
-0.0537904 0.0104902 0
-0.0594596 0.00900517 0
-0.0642242 0.00731605 0
-0.0679638 0.00547361 0
-0.0706009 0.00351262 0
-0.072058 0.00146786 0
-0.0723127 -0.000612572 0
-0.0713428 -0.00268057 0
-0.0691838 -0.00468137 0
-0.065871 -0.00656018 0
-0.0615149 -0.00826365 0
-0.0562254 -0.00973843 0
-0.0501751 -0.0109422 0
-0.0435362 -0.0118327 0
-0.0364898 -0.012318 0
-0.0292168 -0.0123063 0
-0.0220679 -0.0117224 0
-0.0153935 -0.0104911 0
-0.00946599 -0.00848516 0
-0.00455765 -0.00557763 0
-0.00121885 -0.00250405 0
0 0 0
0 0 0
-0.00279723 0.00699109 0
-0.00792825 0.0130371 0
-0.0148923 0.017768 0
-0.0231888 0.0208136 0
-0.0322644 0.0223358 0
-0.0415657 0.0224967 0
-0.0507349 0.0216258 0
-0.059414 0.020053 0
-0.067387 0.017921 0
-0.074438 0.0153724 0
-0.0803911 0.0124806 0
-0.0850708 0.00931907 0
-0.0883843 0.00595569 0
-0.0902389 0.00245842 0
-0.0906019 -0.00109794 0
-0.0894407 -0.00463861 0
-0.0868086 -0.00806511 0
-0.0827587 -0.011279 0
-0.0774185 -0.0141882 0
-0.0709155 -0.0167009 0
-0.0634756 -0.0187381 0
-0.0553246 -0.0202212 0
-0.0467021 -0.0210771 0
-0.0378476 -0.0212327 0
-0.0290414 -0.020452 0
-0.0205638 -0.0184992 0
-0.0129492 -0.0153748 0
-0.00673206 -0.0110793 0
-0.00228985 -0.00586901 0
0 0 0
0 0 0
-0.00392956 0.0114569 0
-0.0103711 0.0203076 0
-0.0187714 0.0266972 0
-0.0285772 0.0307711 0
-0.0391551 0.0327488 0
-0.0498716 0.03285 0
-0.0604083 0.0315408 0
-0.0704466 0.0292876 0
-0.0797133 0.0262445 0
-0.0879348 0.0225658 0
-0.0949034 0.018364 0
-0.100411 0.0137518 0
-0.104342 0.00882859 0
-0.10658 0.00369394 0
-0.107075 -0.00153788 0
-0.105775 -0.00675256 0
-0.102743 -0.0117991 0
-0.0980452 -0.0165265 0
-0.0918322 -0.0207993 0
-0.084257 -0.0244819 0
-0.0755859 -0.027445 0
-0.0660852 -0.029559 0
-0.0560701 -0.0307875 0
-0.0458559 -0.0310939 0
-0.0356467 -0.0301288 0
-0.0256468 -0.0275425 0
-0.0165068 -0.0233169 0
-0.00887708 -0.0174336 0
-0.00322057 -0.00971919 0
0 0 0
0 0 0
-0.00349061 0.0148276 0
-0.0115853 0.0262135 0
-0.0224332 0.0343039 0
-0.0341833 0.039245 0
-0.046347 0.0415891 0
-0.0584353 0.0418881 0
-0.0701979 0.040537 0
-0.0813844 0.0379305 0
-0.0916904 0.0342336 0
-0.100811 0.0296114 0
-0.108564 0.0242414 0
-0.114765 0.0183011 0
-0.119252 0.0119076 0
-0.121861 0.00517788 0
-0.122508 -0.00171122 0
-0.12111 -0.00858272 0
-0.117719 -0.015232 0
-0.112388 -0.0214544 0
-0.105323 -0.0270663 0
-0.0967306 -0.0318842 0
-0.0868981 -0.035726 0
-0.076113 -0.0384098 0
-0.0647618 -0.0399008 0
-0.0532313 -0.0401641 0
-0.0418088 -0.0389714 0
-0.0307814 -0.0360939 0
-0.0203396 -0.0310032 0
-0.0106736 -0.0231706 0
-0.00336612 -0.0127761 0
0 0 0
0 0 0
-0.0031501 0.0208445 0
-0.0123603 0.0357902 0
-0.0249015 0.0457151 0
-0.0380442 0.0514973 0
-0.051515 0.0540613 0
-0.0650403 0.0543316 0
-0.0782595 0.052635 0
-0.0908122 0.0492979 0
-0.102382 0.0445505 0
-0.112654 0.0386228 0
-0.121436 0.0317234 0
-0.128533 0.0240611 0
-0.133737 0.0157732 0
-0.13684 0.00699667 0
-0.137731 -0.00202822 0
-0.1363 -0.0110614 0
-0.132588 -0.0198167 0
-0.126636 -0.0280078 0
-0.118682 -0.0353874 0
-0.108966 -0.0417083 0
-0.0978123 -0.04674 0
-0.0855448 -0.0502519 0
-0.0726127 -0.0521521 0
-0.0594654 -0.0523485 0
-0.0466186 -0.0507975 0
-0.0345884 -0.0474552 0
-0.0231106 -0.04148 0
-0.0119211 -0.0320305 0
-0.00341817 -0.0184296 0
0 0 0
0 0 0
-0.00457773 0.033249 0
-0.0134858 0.054073 0
-0.0252001 0.0660579 0
-0.0381967 0.0727896 0
-0.0523339 0.0753701 0
-0.0674701 0.0749012 0
-0.0827491 0.0718556 0
-0.0973145 0.0667063 0
-0.110854 0.0598575 0
-0.123053 0.0517135 0
-0.133583 0.0424208 0
-0.142113 0.0321258 0
-0.148418 0.0210055 0
-0.152275 0.00923674 0
-0.153573 -0.00289913 0
-0.1522 -0.0151209 0
-0.148206 -0.027006 0
-0.141639 -0.0381318 0
-0.132701 -0.0481607 0
-0.121594 -0.0567551 0
-0.108729 -0.0636458 0
-0.0945175 -0.0685637 0
-0.0794587 -0.0712766 0
-0.0640498 -0.0715524 0
-0.0491675 -0.0694249 0
-0.0356885 -0.0649282 0
-0.0234824 -0.057794 0
-0.0124191 -0.0477541 0
-0.00406837 -0.0300692 0
0 0 0
0 0 0
-0.00531339 0.0427478 0
-0.0132005 0.0684307 0
-0.0235853 0.0826073 0
-0.036392 0.0908362 0
-0.0512046 0.094115 0
-0.0676073 0.0934413 0
-0.0844546 0.0895156 0
-0.100601 0.0830385 0
-0.115713 0.0745274 0
-0.129457 0.0644998 0
-0.141391 0.0530647 0
-0.151072 0.0403315 0
-0.158278 0.0265414 0
-0.162786 0.0119361 0
-0.164491 -0.0031578 0
-0.163285 -0.0184132 0
-0.159211 -0.0332967 0
-0.152315 -0.0472745 0
-0.14275 -0.0599021 0
-0.13067 -0.0707348 0
-0.116541 -0.0794444 0
-0.100826 -0.0857027 0
-0.0840693 -0.089143 0
-0.0668162 -0.0893988 0
-0.0501682 -0.086466 0
-0.0352273 -0.0803407 0
-0.0223639 -0.0715123 0
-0.0119486 -0.0604707 0
-0.00436572 -0.0392789 0
0 0 0
0 0 0
-0.00289695 0.0400478 0
-0.00974346 0.0662323 0
-0.0203136 0.0826385 0
-0.0343814 0.0933512 0
-0.050528 0.0988956 0
-0.0673342 0.0997967 0
-0.084164 0.0969316 0
-0.100381 0.0911773 0
-0.11557 0.0829329 0
-0.129317 0.0725975 0
-0.141245 0.0603863 0
-0.150978 0.0465145 0
-0.158299 0.031318 0
-0.162992 0.0151326 0
-0.16494 -0.00163807 0
-0.164027 -0.0185904 0
-0.160243 -0.0351854 0
-0.153579 -0.0508838 0
-0.144195 -0.0651275 0
-0.132253 -0.0773581 0
-0.118144 -0.0871373 0
-0.102264 -0.0940266 0
-0.0852145 -0.0976199 0
-0.0675963 -0.097511 0
-0.0503337 -0.0935334 0
-0.0343507 -0.0855204 0
-0.0206639 -0.0742024 0
-0.0102903 -0.0603098 0
-0.00335919 -0.0376424 0
0 0 0
0 0 0
-0.00109413 0.033676 0
-0.00762171 0.0590628 0
-0.0188082 0.0776865 0
-0.033879 0.0910738 0
-0.0507317 0.0992792 0
-0.0672641 0.102357 0
-0.0833826 0.101228 0
-0.0989939 0.096808 0
-0.1136 0.0893663 0
-0.126704 0.0791694 0
-0.13804 0.066596 0
-0.147342 0.0520245 0
-0.154406 0.0358798 0
-0.15903 0.0185866 0
-0.161094 0.00062501 0
-0.160479 -0.0175252 0
-0.157138 -0.0353543 0
-0.151022 -0.0523528 0
-0.142287 -0.0678827 0
-0.131084 -0.0813059 0
-0.117697 -0.0920413 0
-0.102409 -0.0995075 0
-0.0858381 -0.103265 0
-0.0686051 -0.102873 0
-0.0513756 -0.0979808 0
-0.0348155 -0.088237 0
-0.0204088 -0.0742527 0
-0.00963966 -0.056639 0
-0.00275453 -0.0327651 0
0 0 0
0 0 0
-0.00367066 0.0321596 0
-0.0113423 0.0585068 0
-0.0224925 0.0792864 0
-0.0365988 0.0947431 0
-0.0522439 0.104833 0
-0.0680104 0.109514 0
-0.0836159 0.109527 0
-0.0987783 0.105616 0
-0.112977 0.0981196 0
-0.125691 0.087378 0
-0.136673 0.0739041 0
-0.145677 0.0582111 0
-0.152524 0.0407717 0
-0.157038 0.0220585 0
-0.159124 0.00259639 0
-0.158691 -0.01709 0
-0.15573 -0.0364853 0
-0.150234 -0.0550745 0
-0.142271 -0.0722137 0
-0.131909 -0.0872593 0
-0.11936 -0.0994732 0
-0.104835 -0.108117 0
-0.088884 -0.112635 0
-0.0720574 -0.112468 0
-0.0550055 -0.107162 0
-0.0383789 -0.0962601 0
-0.0236252 -0.0800519 0
-0.0121919 -0.0588263 0
-0.00425747 -0.0322527 0
0 0 0
0 0 0
-0.0068112 0.0348938 0
-0.0159519 0.0641056 0
-0.0272089 0.0874622 0
-0.0403693 0.10479 0
-0.0549112 0.116193 0
-0.0703127 0.121772 0
-0.0858991 0.12213 0
-0.100996 0.117869 0
-0.115094 0.109501 0
-0.127685 0.0975409 0
-0.138532 0.0826026 0
-0.147394 0.0652993 0
-0.15413 0.0461301 0
-0.158596 0.0255937 0
-0.160732 0.00422586 0
-0.160475 -0.0174379 0
-0.157861 -0.0388566 0
-0.152922 -0.0594894 0
-0.145627 -0.078693 0
-0.135944 -0.0958237 0
-0.124015 -0.110009 0
-0.10998 -0.120375 0
-0.0943023 -0.126194 0
-0.0774432 -0.126739 0
-0.0601469 -0.121422 0
-0.043157 -0.109658 0
-0.0277739 -0.091393 0
-0.0152977 -0.0665739 0
-0.00596182 -0.0358823 0
0 0 0
0 0 0
-0.00670041 0.0412739 0
-0.016497 0.0754001 0
-0.0287999 0.102238 0
-0.0430191 0.121647 0
-0.0585808 0.133993 0
-0.0749111 0.13964 0
-0.0912673 0.139338 0
-0.106907 0.133834 0
-0.121345 0.123818 0
-0.134097 0.109976 0
-0.145004 0.0929835 0
-0.153907 0.0735144 0
-0.160703 0.0520915 0
-0.165288 0.0292377 0
-0.167616 0.00546321 0
-0.167643 -0.0187218 0
-0.165368 -0.0427461 0
-0.160792 -0.0660384 0
-0.153833 -0.0878932 0
-0.144407 -0.107605 0
-0.132547 -0.124224 0
-0.118283 -0.136799 0
-0.102043 -0.144408 0
-0.0842527 -0.146126 0
-0.0657232 -0.141105 0
-0.0472662 -0.128498 0
-0.0303162 -0.108069 0
-0.0163073 -0.079584 0
-0.00596135 -0.0434313 0
0 0 0
0 0 0
-0.00551306 0.0489273 0
-0.0156843 0.0887329 0
-0.0293251 0.119402 0
-0.0452465 0.140921 0
-0.0624656 0.153988 0
-0.0799995 0.159303 0
-0.0971619 0.157883 0
-0.113267 0.150746 0
-0.1279 0.138764 0
-0.14065 0.122808 0
-0.151452 0.103594 0
-0.160247 0.081839 0
-0.166987 0.0580832 0
-0.171629 0.0328676 0
-0.17414 0.00666103 0
-0.174488 -0.0200676 0
-0.172615 -0.0467396 0
-0.168463 -0.0727761 0
-0.161903 -0.0974065 0
-0.152805 -0.11986 0
-0.141087 -0.139132 0
-0.126668 -0.154218 0
-0.109909 -0.163959 0
-0.0911755 -0.167195 0
-0.0713233 -0.162753 0
-0.0512104 -0.149459 0
-0.0324906 -0.126862 0
-0.0168176 -0.0945143 0
-0.00553842 -0.0522741 0
0 0 0
0 0 0
-0.00542392 0.0554819 0
-0.0162204 0.100447 0
-0.0308442 0.134743 0
-0.04775 0.15822 0
-0.065779 0.171935 0
-0.0837721 0.176947 0
-0.101024 0.1745 0
-0.116829 0.165838 0
-0.13093 0.152035 0
-0.143068 0.134162 0
-0.15324 0.112982 0
-0.161445 0.0892558 0
-0.167729 0.0635328 0
-0.172139 0.0363607 0
-0.174667 0.00817191 0
-0.175307 -0.0206012 0
-0.173966 -0.0494228 0
-0.170553 -0.0777571 0
-0.164851 -0.104825 0
-0.156645 -0.129846 0
-0.145768 -0.151748 0
-0.132057 -0.169457 0
-0.115703 -0.181527 0
-0.0969013 -0.186511 0
-0.0765362 -0.182908 0
-0.0554936 -0.169219 0
-0.0355358 -0.144554 0
-0.0184252 -0.108023 0
-0.00597533 -0.059785 0
0 0 0
0 0 0
-0.00586308 0.0622714 0
-0.0174142 0.112314 0
-0.032845 0.149989 0
-0.0503469 0.175156 0
-0.0686346 0.189234 0
-0.0864229 0.193643 0
-0.103044 0.18992 0
-0.117831 0.179604 0
-0.130697 0.163948 0
-0.141555 0.144202 0
-0.150492 0.121189 0
-0.157596 0.095729 0
-0.163014 0.0683515 0
-0.166893 0.0395871 0
-0.169264 0.00982033 0
-0.170159 -0.0205645 0
-0.169462 -0.0511103 0
-0.167061 -0.0813602 0
-0.162649 -0.110581 0
-0.155922 -0.138039 0
-0.146598 -0.162584 0
-0.1344 -0.183064 0
-0.119311 -0.197762 0
-0.101313 -0.204961 0
-0.0812085 -0.202725 0
-0.0597989 -0.18912 0
-0.0389527 -0.162712 0
-0.0205388 -0.122068 0
-0.00680525 -0.0676692 0
0 0 0
0 0 0
-0.0062606 0.0706298 0
-0.018575 0.126109 0
-0.0348155 0.166868 0
-0.0528544 0.193341 0
-0.0711464 0.207285 0
-0.088146 0.210459 0
-0.103413 0.204873 0
-0.116508 0.192537 0
-0.127464 0.174822 0
-0.136313 0.153096 0
-0.143331 0.128262 0
-0.148791 0.101223 0
-0.152927 0.0724505 0
-0.155969 0.042417 0
-0.158001 0.0114308 0
-0.159104 -0.0201996 0
-0.159144 -0.0521169 0
-0.157988 -0.083964 0
-0.155271 -0.115108 0
-0.150631 -0.144914 0
-0.143584 -0.17215 0
-0.133647 -0.195582 0
-0.120618 -0.213309 0
-0.104294 -0.223433 0
-0.085187 -0.223363 0
-0.0638092 -0.210506 0
-0.0422421 -0.182906 0
-0.0225674 -0.138607 0
-0.00756134 -0.0776318 0
0 0 0
0 0 0
-0.00668838 0.0799594 0
-0.019899 0.141099 0
-0.0369231 0.184613 0
-0.0550518 0.211695 0
-0.0726457 0.224702 0
-0.0880652 0.225992 0
-0.10111 0.218045 0
-0.11158 0.203347 0
-0.119706 0.183414 0
-0.125721 0.159763 0
-0.130101 0.133331 0
-0.133323 0.105053 0
-0.135707 0.0753228 0
-0.137571 0.0445314 0
-0.139052 0.0128839 0
-0.140284 -0.019415 0
-0.141129 -0.0521335 0
-0.141447 -0.0850398 0
-0.140832 -0.117633 0
-0.138875 -0.149414 0
-0.134888 -0.179146 0
-0.128181 -0.205595 0
-0.11827 -0.226676 0
-0.104669 -0.240301 0
-0.0875539 -0.243203 0
-0.0670989 -0.232115 0
-0.0454191 -0.20425 0
-0.024629 -0.156823 0
-0.00829923 -0.0890137 0
0 0 0
0 0 0
-0.0072183 0.0896624 0
-0.0215827 0.156554 0
-0.0393354 0.202453 0
-0.0567184 0.229138 0
-0.0724639 0.240101 0
-0.0853042 0.238836 0
-0.0951128 0.228123 0
-0.101763 0.210742 0
-0.105897 0.188481 0
-0.108153 0.163127 0
-0.109144 0.13553 0
-0.109481 0.106538 0
-0.109592 0.0764613 0
-0.109904 0.0456115 0
-0.110595 0.0140605 0
-0.111843 -0.0181194 0
-0.113534 -0.0508514 0
-0.115553 -0.0840589 0
-0.117445 -0.117386 0
-0.118754 -0.150479 0
-0.118671 -0.182268 0
-0.116387 -0.211688 0
-0.110914 -0.236367 0
-0.101266 -0.253935 0
-0.0873915 -0.26063 0
-0.0692422 -0.252687 0
-0.0484986 -0.225858 0
-0.0268417 -0.175895 0
-0.00907453 -0.101156 0
0 0 0
0 0 0
-0.00810394 0.100387 0
-0.0232946 0.172581 0
-0.0410417 0.219687 0
-0.0568146 0.244811 0
-0.0696177 0.252642 0
-0.078455 0.247871 0
-0.0835287 0.233747 0
-0.0850406 0.213521 0
-0.0840563 0.189114 0
-0.0816411 0.162443 0
-0.0785151 0.134226 0
-0.0753987 0.105177 0
-0.072805 0.0754968 0
-0.0712471 0.0453823 0
-0.0709335 0.0147647 0
-0.0720731 -0.0164253 0
-0.0745939 -0.0482755 0
-0.078424 -0.0808741 0
-0.0830948 -0.114046 0
-0.0881375 -0.147615 0
-0.0926813 -0.18076 0
-0.0958557 -0.212657 0
-0.0961863 -0.240859 0
-0.0921986 -0.262916 0
-0.0833081 -0.27442 0
-0.0689303 -0.270961 0
-0.050344 -0.246663 0
-0.028828 -0.195649 0
-0.0101306 -0.11455 0
0 0 0
0 0 0
-0.00959886 0.112782 0
-0.0247031 0.189285 0
-0.0410311 0.23561 0
-0.0543012 0.257856 0
-0.0631239 0.26149 0
-0.0661098 0.251976 0
-0.0644642 0.23356 0
-0.0593923 0.210485 0
-0.0522056 0.184403 0
-0.0442153 0.156966 0
-0.0362674 0.128786 0
-0.0292081 0.100475 0
-0.0235688 0.07206 0
-0.0198815 0.0435689 0
-0.0183719 0.0148007 0
-0.019266 -0.0144451 0
-0.0225416 -0.0444107 0
-0.0281767 -0.0753386 0
-0.0357631 -0.107291 0
-0.0448924 -0.140328 0
-0.0546646 -0.173861 0
-0.0641793 -0.207299 0
-0.0717236 -0.238625 0
-0.0755848 -0.265823 0
-0.073912 -0.283353 0
-0.0648545 -0.285677 0
-0.0498186 -0.265596 0
-0.0302106 -0.215909 0
-0.0117109 -0.129688 0
0 0 0
0 0 0
-0.0105371 0.125527 0
-0.025406 0.205239 0
-0.0395411 0.248807 0
-0.0478769 0.265904 0
-0.0497285 0.263488 0
-0.0444111 0.248519 0
-0.0341445 0.225879 0
-0.0211488 0.200453 0
-0.00686682 0.173464 0
0.00725861 0.146134 0
0.0203426 0.11892 0
0.0315001 0.0922788 0
0.0402526 0.0660552 0
0.0461213 0.0400947 0
0.0488889 0.0140861 0
0.0483381 -0.0122821 0
0.0444388 -0.0393783 0
0.0371609 -0.0675708 0
0.026786 -0.0971558 0
0.0135959 -0.128429 0
-0.00158916 -0.161076 0
-0.0179491 -0.19478 0
-0.0337448 -0.228181 0
-0.0472371 -0.25992 0
-0.0553789 -0.283862 0
-0.0551229 -0.29387 0
-0.0467036 -0.280641 0
-0.0303558 -0.234869 0
-0.0126107 -0.145131 0
0 0 0
0 0 0
-0.00975274 0.137303 0
-0.025001 0.219015 0
-0.0368089 0.257865 0
-0.0362405 0.266583 0
-0.0261775 0.255479 0
-0.00950132 0.234863 0
0.0112052 0.209023 0
0.0333595 0.182246 0
0.0554374 0.155407 0
0.0759148 0.129383 0
0.0940585 0.104339 0
0.109135 0.0804391 0
0.120795 0.0573865 0
0.128689 0.0348834 0
0.132648 0.0125384 0
0.132499 -0.0100398 0
0.128164 -0.0332996 0
0.119561 -0.057689 0
0.106788 -0.0836766 0
0.0899428 -0.111731 0
0.0695769 -0.141908 0
0.0462434 -0.174264 0
0.0215318 -0.208039 0
-0.00296825 -0.242474 0
-0.0238841 -0.272382 0
-0.0378434 -0.292577 0
-0.0407804 -0.289782 0
-0.0286299 -0.25072 0
-0.0116252 -0.159443 0
0 0 0
0 0 0
-0.00904514 0.150772 0
-0.0198894 0.229313 0
-0.0228241 0.25683 0
-0.00814078 0.254528 0
0.0174698 0.234708 0
0.0473168 0.209669 0
0.079012 0.182421 0
0.110167 0.155973 0
0.139415 0.130834 0
0.165389 0.107511 0
0.187661 0.085847 0
0.205804 0.0656823 0
0.219658 0.0466328 0
0.229062 0.0283134 0
0.233921 0.0103005 0
0.234141 -0.00783012 0
0.2296 -0.0265502 0
0.220178 -0.0463317 0
0.20577 -0.0677252 0
0.186272 -0.0912813 0
0.161839 -0.117421 0
0.13263 -0.146567 0
0.099823 -0.178501 0
0.0646 -0.213007 0
0.0298338 -0.246718 0
-0.0016025 -0.276266 0
-0.0212599 -0.286176 0
-0.0206896 -0.260972 0
-0.0101751 -0.174349 0
0 0 0
0 0 0
-0.0102137 0.168595 0
-0.00647221 0.234835 0
0.0124237 0.239751 0
0.0476735 0.224374 0
0.0911536 0.198418 0
0.134741 0.171594 0
0.176703 0.145503 0
0.215309 0.121746 0
0.249774 0.100343 0
0.279315 0.0813152 0
0.303929 0.0642502 0
0.323613 0.0487356 0
0.338439 0.0343728 0
0.348477 0.0207632 0
0.353726 0.00751473 0
0.354185 -0.00576495 0
0.349712 -0.0195056 0
0.340163 -0.0341371 0
0.325255 -0.0501738 0
0.304705 -0.0681302 0
0.278204 -0.0886817 0
0.245442 -0.112504 0
0.206846 -0.139867 0
0.162846 -0.171044 0
0.115036 -0.204676 0
0.0650133 -0.239407 0
0.0226471 -0.262978 0
-0.00219148 -0.263134 0
-0.00968095 -0.191575 0
0 0 0
0 0 0
0.0118853 0.164936 0
0.0465305 0.213285 0
0.0962282 0.198838 0
0.153271 0.175382 0
0.211533 0.148592 0
0.264888 0.12414 0
0.312741 0.102372 0
0.354496 0.083632 0
0.39021 0.0675956 0
0.419939 0.0539381 0
0.444093 0.0421269 0
0.463087 0.0316295 0
0.477192 0.0221086 0
0.486681 0.0132269 0
0.491636 0.00467453 0
0.492139 -0.00385843 0
0.488047 -0.0127083 0
0.479213 -0.0222113 0
0.465241 -0.0327593 0
0.445733 -0.0447443 0
0.419996 -0.0589167 0
0.387336 -0.076027 0
0.347281 -0.0966066 0
0.299357 -0.121187 0
0.2435 -0.150032 0
0.179644 -0.183406 0
0.114935 -0.214173 0
0.0565237 -0.235196 0
0.014761 -0.184473 0
0 0 0
2.77334e-30 0 0
0.0823955 0.113959 0
0.170399 0.142371 0
0.255883 0.126301 0
0.33072 0.106813 0
0.395265 0.0872139 0
0.449876 0.0708108 0
0.495589 0.0571305 0
0.533442 0.0457001 0
0.564419 0.0362532 0
0.589503 0.0285234 0
0.609384 0.0220556 0
0.624749 0.0163949 0
0.63597 0.0113422 0
0.643418 0.00669848 0
0.647221 0.00227311 0
0.647508 -0.00212466 0
0.644152 -0.00670056 0
0.637026 -0.0116603 0
0.625725 -0.0172187 0
0.609845 -0.0235905 0
0.588542 -0.0313544 0
0.560971 -0.0410889 0
0.525807 -0.053186 0
0.481722 -0.0680377 0
0.427001 -0.0865611 0
0.359928 -0.109673 0
0.2796 -0.133745 0
0.185115 -0.155146 0
0.0880546 -0.126393 0
2.77334e-30 0 0
0.25 0 0
0.359154 0.0481516 0
0.45745 0.0589803 0
0.540702 0.0505515 0
0.604727 0.0409307 0
0.654154 0.0318331 0
0.693611 0.0249742 0
0.724818 0.0196995 0
0.749494 0.0153547 0
0.768862 0.01187 0
0.784145 0.00917584 0
0.795964 0.00701909 0
0.804939 0.00514671 0
0.811372 0.00349785 0
0.815565 0.00201163 0
0.817627 0.000613826 0
0.817669 -0.000769796 0
0.815609 -0.00221897 0
0.811366 -0.00381344 0
0.80466 -0.00561215 0
0.79521 -0.00767405 0
0.782367 -0.0102854 0
0.765481 -0.0137323 0
0.743141 -0.0181392 0
0.713938 -0.0236305 0
0.675761 -0.0309785 0
0.626502 -0.0409553 0
0.560126 -0.0521889 0
0.470601 -0.0633073 0
0.364901 -0.0530109 0
0.25 0 0
1 0 0
1 0 0
1 0 0
1 0 0
1 0 0
1 0 0
1 0 0
1 0 0
1 0 0
1 0 0
1 0 0
1 0 0
1 0 0
1 0 0
1 0 0
1 0 0
1 0 0
1 0 0
1 0 0
1 0 0
1 0 0
1 0 0
1 0 0
1 0 0
1 0 0
1 0 0
1 0 0
1 0 0
1 0 0
1 0 0
1 0 0
      </DataArray> 
      <DataArray type="Float64" NumberOfComponents="3" Name="Real Velocity" format="ascii">
0 0 0
0 0 0
0 0 0
0 0 0
0 0 0
0 0 0
0 0 0
0 0 0
0 0 0
0 0 0
0 0 0
0 0 0