<?xml version="1.0"?>
<VTKFile type="UnstructuredGrid">
  <UnstructuredGrid>
  <Piece NumberOfPoints="961"  NumberOfCells="225">
    <Points>
      <DataArray type="Float64" NumberOfComponents="3" format="ascii">
0 0 0
0.0333333 0 0
0.0666667 0 0
0.1 0 0
0.133333 0 0
0.166667 0 0
0.2 0 0
0.233333 0 0
0.266667 0 0
0.3 0 0
0.333333 0 0
0.366667 0 0
0.4 0 0
0.433333 0 0
0.466667 0 0
0.5 0 0
0.533333 0 0
0.566667 0 0
0.6 0 0
0.633333 0 0
0.666667 0 0
0.7 0 0
0.733333 0 0
0.766667 0 0
0.8 0 0
0.833333 0 0
0.866667 0 0
0.9 0 0
0.933333 0 0
0.966667 0 0
1 0 0
0 0.0333333 0
0.0333333 0.0333333 0
0.0666667 0.0333333 0
0.1 0.0333333 0
0.133333 0.0333333 0
0.166667 0.0333333 0
0.2 0.0333333 0
0.233333 0.0333333 0
0.266667 0.0333333 0
0.3 0.0333333 0
0.333333 0.0333333 0
0.366667 0.0333333 0
0.4 0.0333333 0
0.433333 0.0333333 0
0.466667 0.0333333 0
0.5 0.0333333 0
0.533333 0.0333333 0
0.566667 0.0333333 0
0.6 0.0333333 0
0.633333 0.0333333 0
0.666667 0.0333333 0
0.7 0.0333333 0
0.733333 0.0333333 0
0.766667 0.0333333 0
0.8 0.0333333 0
0.833333 0.0333333 0
0.866667 0.0333333 0
0.9 0.0333333 0
0.933333 0.0333333 0
0.966667 0.0333333 0
1 0.0333333 0
0 0.0666667 0
0.0333333 0.0666667 0
0.0666667 0.0666667 0
0.1 0.0666667 0
0.133333 0.0666667 0
0.166667 0.0666667 0
0.2 0.0666667 0
0.233333 0.0666667 0
0.266667 0.0666667 0
0.3 0.0666667 0
0.333333 0.0666667 0
0.366667 0.0666667 0
0.4 0.0666667 0
0.433333 0.0666667 0
0.466667 0.0666667 0
0.5 0.0666667 0
0.533333 0.0666667 0
0.566667 0.0666667 0
0.6 0.0666667 0
0.633333 0.0666667 0
0.666667 0.0666667 0
0.7 0.0666667 0
0.733333 0.0666667 0
0.766667 0.0666667 0
0.8 0.0666667 0
0.833333 0.0666667 0
0.866667 0.0666667 0
0.9 0.0666667 0
0.933333 0.0666667 0
0.966667 0.0666667 0
1 0.0666667 0
0 0.1 0
0.0333333 0.1 0
0.0666667 0.1 0
0.1 0.1 0
0.133333 0.1 0
0.166667 0.1 0
0.2 0.1 0
0.233333 0.1 0
0.266667 0.1 0
0.3 0.1 0
0.333333 0.1 0
0.366667 0.1 0
0.4 0.1 0
0.433333 0.1 0
0.466667 0.1 0
0.5 0.1 0
0.533333 0.1 0
0.566667 0.1 0
0.6 0.1 0
0.633333 0.1 0
0.666667 0.1 0
0.7 0.1 0
0.733333 0.1 0
0.766667 0.1 0
0.8 0.1 0
0.833333 0.1 0
0.866667 0.1 0
0.9 0.1 0
0.933333 0.1 0
0.966667 0.1 0
1 0.1 0
0 0.133333 0
0.0333333 0.133333 0
0.0666667 0.133333 0
0.1 0.133333 0
0.133333 0.133333 0
0.166667 0.133333 0
0.2 0.133333 0
0.233333 0.133333 0
0.266667 0.133333 0
0.3 0.133333 0
0.333333 0.133333 0
0.366667 0.133333 0
0.4 0.133333 0
0.433333 0.133333 0
0.466667 0.133333 0
0.5 0.133333 0
0.533333 0.133333 0
0.566667 0.133333 0
0.6 0.133333 0
0.633333 0.133333 0
0.666667 0.133333 0
0.7 0.133333 0
0.733333 0.133333 0
0.766667 0.133333 0
0.8 0.133333 0
0.833333 0.133333 0
0.866667 0.133333 0
0.9 0.133333 0
0.933333 0.133333 0
0.966667 0.133333 0
1 0.133333 0
0 0.166667 0
0.0333333 0.166667 0
0.0666667 0.166667 0
0.1 0.166667 0
0.133333 0.166667 0
0.166667 0.166667 0
0.2 0.166667 0
0.233333 0.166667 0
0.266667 0.166667 0
0.3 0.166667 0
0.333333 0.166667 0
0.366667 0.166667 0
0.4 0.166667 0
0.433333 0.166667 0
0.466667 0.166667 0
0.5 0.166667 0
0.533333 0.166667 0
0.566667 0.166667 0
0.6 0.166667 0
0.633333 0.166667 0
0.666667 0.166667 0
0.7 0.166667 0
0.733333 0.166667 0
0.766667 0.166667 0
0.8 0.166667 0
0.833333 0.166667 0
0.866667 0.166667 0
0.9 0.166667 0
0.933333 0.166667 0
0.966667 0.166667 0
1 0.166667 0
0 0.2 0
0.0333333 0.2 0
0.0666667 0.2 0
0.1 0.2 0
0.133333 0.2 0
0.166667 0.2 0
0.2 0.2 0
0.233333 0.2 0
0.266667 0.2 0
0.3 0.2 0
0.333333 0.2 0
0.366667 0.2 0
0.4 0.2 0
0.433333 0.2 0
0.466667 0.2 0
0.5 0.2 0
0.533333 0.2 0
0.566667 0.2 0
0.6 0.2 0
0.633333 0.2 0
0.666667 0.2 0
0.7 0.2 0
0.733333 0.2 0
0.766667 0.2 0
0.8 0.2 0
0.833333 0.2 0
0.866667 0.2 0
0.9 0.2 0
0.933333 0.2 0
0.966667 0.2 0
1 0.2 0
0 0.233333 0
0.0333333 0.233333 0
0.0666667 0.233333 0
0.1 0.233333 0
0.133333 0.233333 0
0.166667 0.233333 0
0.2 0.233333 0
0.233333 0.233333 0
0.266667 0.233333 0
0.3 0.233333 0
0.333333 0.233333 0
0.366667 0.233333 0
0.4 0.233333 0
0.433333 0.233333 0
0.466667 0.233333 0
0.5 0.233333 0
0.533333 0.233333 0
0.566667 0.233333 0
0.6 0.233333 0
0.633333 0.233333 0
0.666667 0.233333 0
0.7 0.233333 0
0.733333 0.233333 0
0.766667 0.233333 0
0.8 0.233333 0
0.833333 0.233333 0
0.866667 0.233333 0
0.9 0.233333 0
0.933333 0.233333 0
0.966667 0.233333 0
1 0.233333 0
0 0.266667 0
0.0333333 0.266667 0
0.0666667 0.266667 0
0.1 0.266667 0
0.133333 0.266667 0
0.166667 0.266667 0
0.2 0.266667 0
0.233333 0.266667 0
0.266667 0.266667 0
0.3 0.266667 0
0.333333 0.266667 0
0.366667 0.266667 0
0.4 0.266667 0
0.433333 0.266667 0
0.466667 0.266667 0
0.5 0.266667 0
0.533333 0.266667 0
0.566667 0.266667 0
0.6 0.266667 0
0.633333 0.266667 0
0.666667 0.266667 0
0.7 0.266667 0
0.733333 0.266667 0
0.766667 0.266667 0
0.8 0.266667 0
0.833333 0.266667 0
0.866667 0.266667 0
0.9 0.266667 0
0.933333 0.266667 0
0.966667 0.266667 0
1 0.266667 0
0 0.3 0
0.0333333 0.3 0
0.0666667 0.3 0
0.1 0.3 0
0.133333 0.3 0
0.166667 0.3 0
0.2 0.3 0
0.233333 0.3 0
0.266667 0.3 0
0.3 0.3 0
0.333333 0.3 0
0.366667 0.3 0
0.4 0.3 0
0.433333 0.3 0
0.466667 0.3 0
0.5 0.3 0
0.533333 0.3 0
0.566667 0.3 0
0.6 0.3 0
0.633333 0.3 0
0.666667 0.3 0
0.7 0.3 0
0.733333 0.3 0
0.766667 0.3 0
0.8 0.3 0
0.833333 0.3 0
0.866667 0.3 0
0.9 0.3 0
0.933333 0.3 0
0.966667 0.3 0
1 0.3 0
0 0.333333 0
0.0333333 0.333333 0
0.0666667 0.333333 0
0.1 0.333333 0
0.133333 0.333333 0
0.166667 0.333333 0
0.2 0.333333 0
0.233333 0.333333 0
0.266667 0.333333 0
0.3 0.333333 0
0.333333 0.333333 0
0.366667 0.333333 0
0.4 0.333333 0
0.433333 0.333333 0
0.466667 0.333333 0
0.5 0.333333 0
0.533333 0.333333 0
0.566667 0.333333 0
0.6 0.333333 0
0.633333 0.333333 0
0.666667 0.333333 0
0.7 0.333333 0
0.733333 0.333333 0
0.766667 0.333333 0
0.8 0.333333 0
0.833333 0.333333 0
0.866667 0.333333 0
0.9 0.333333 0
0.933333 0.333333 0
0.966667 0.333333 0
1 0.333333 0
0 0.366667 0
0.0333333 0.366667 0
0.0666667 0.366667 0
0.1 0.366667 0
0.133333 0.366667 0
0.166667 0.366667 0
0.2 0.366667 0
0.233333 0.366667 0
0.266667 0.366667 0
0.3 0.366667 0
0.333333 0.366667 0
0.366667 0.366667 0
0.4 0.366667 0
0.433333 0.366667 0
0.466667 0.366667 0
0.5 0.366667 0
0.533333 0.366667 0
0.566667 0.366667 0
0.6 0.366667 0
0.633333 0.366667 0
0.666667 0.366667 0
0.7 0.366667 0
0.733333 0.366667 0
0.766667 0.366667 0
0.8 0.366667 0
0.833333 0.366667 0
0.866667 0.366667 0
0.9 0.366667 0
0.933333 0.366667 0
0.966667 0.366667 0
1 0.366667 0
0 0.4 0
0.0333333 0.4 0
0.0666667 0.4 0
0.1 0.4 0
0.133333 0.4 0
0.166667 0.4 0
0.2 0.4 0
0.233333 0.4 0
0.266667 0.4 0
0.3 0.4 0
0.333333 0.4 0
0.366667 0.4 0
0.4 0.4 0
0.433333 0.4 0
0.466667 0.4 0
0.5 0.4 0
0.533333 0.4 0
0.566667 0.4 0
0.6 0.4 0
0.633333 0.4 0
0.666667 0.4 0
0.7 0.4 0
0.733333 0.4 0
0.766667 0.4 0
0.8 0.4 0
0.833333 0.4 0
0.866667 0.4 0
0.9 0.4 0
0.933333 0.4 0
0.966667 0.4 0
1 0.4 0
0 0.433333 0
0.0333333 0.433333 0
0.0666667 0.433333 0
0.1 0.433333 0
0.133333 0.433333 0
0.166667 0.433333 0
0.2 0.433333 0
0.233333 0.433333 0
0.266667 0.433333 0
0.3 0.433333 0
0.333333 0.433333 0
0.366667 0.433333 0
0.4 0.433333 0
0.433333 0.433333 0
0.466667 0.433333 0
0.5 0.433333 0
0.533333 0.433333 0
0.566667 0.433333 0
0.6 0.433333 0
0.633333 0.433333 0
0.666667 0.433333 0
0.7 0.433333 0
0.733333 0.433333 0
0.766667 0.433333 0
0.8 0.433333 0
0.833333 0.433333 0
0.866667 0.433333 0
0.9 0.433333 0
0.933333 0.433333 0
0.966667 0.433333 0
1 0.433333 0
0 0.466667 0
0.0333333 0.466667 0
0.0666667 0.466667 0
0.1 0.466667 0
0.133333 0.466667 0
0.166667 0.466667 0
0.2 0.466667 0
0.233333 0.466667 0
0.266667 0.466667 0
0.3 0.466667 0
0.333333 0.466667 0
0.366667 0.466667 0
0.4 0.466667 0
0.433333 0.466667 0
0.466667 0.466667 0
0.5 0.466667 0
0.533333 0.466667 0
0.566667 0.466667 0
0.6 0.466667 0
0.633333 0.466667 0
0.666667 0.466667 0
0.7 0.466667 0
0.733333 0.466667 0
0.766667 0.466667 0
0.8 0.466667 0
0.833333 0.466667 0
0.866667 0.466667 0
0.9 0.466667 0
0.933333 0.466667 0
0.966667 0.466667 0
1 0.466667 0
0 0.5 0
0.0333333 0.5 0
0.0666667 0.5 0
0.1 0.5 0
0.133333 0.5 0
0.166667 0.5 0
0.2 0.5 0
0.233333 0.5 0
0.266667 0.5 0
0.3 0.5 0
0.333333 0.5 0
0.366667 0.5 0
0.4 0.5 0
0.433333 0.5 0
0.466667 0.5 0
0.5 0.5 0
0.533333 0.5 0
0.566667 0.5 0
0.6 0.5 0
0.633333 0.5 0
0.666667 0.5 0
0.7 0.5 0
0.733333 0.5 0
0.766667 0.5 0
0.8 0.5 0
0.833333 0.5 0
0.866667 0.5 0
0.9 0.5 0
0.933333 0.5 0
0.966667 0.5 0
1 0.5 0
0 0.533333 0
0.0333333 0.533333 0
0.0666667 0.533333 0
0.1 0.533333 0
0.133333 0.533333 0
0.166667 0.533333 0
0.2 0.533333 0
0.233333 0.533333 0
0.266667 0.533333 0
0.3 0.533333 0
0.333333 0.533333 0
0.366667 0.533333 0
0.4 0.533333 0
0.433333 0.533333 0
0.466667 0.533333 0
0.5 0.533333 0
0.533333 0.533333 0
0.566667 0.533333 0
0.6 0.533333 0
0.633333 0.533333 0
0.666667 0.533333 0
0.7 0.533333 0
0.733333 0.533333 0
0.766667 0.533333 0
0.8 0.533333 0
0.833333 0.533333 0
0.866667 0.533333 0
0.9 0.533333 0
0.933333 0.533333 0
0.966667 0.533333 0
1 0.533333 0
0 0.566667 0
0.0333333 0.566667 0
0.0666667 0.566667 0
0.1 0.566667 0
0.133333 0.566667 0
0.166667 0.566667 0
0.2 0.566667 0
0.233333 0.566667 0
0.266667 0.566667 0
0.3 0.566667 0
0.333333 0.566667 0
0.366667 0.566667 0
0.4 0.566667 0
0.433333 0.566667 0
0.466667 0.566667 0
0.5 0.566667 0
0.533333 0.566667 0
0.566667 0.566667 0
0.6 0.566667 0
0.633333 0.566667 0
0.666667 0.566667 0
0.7 0.566667 0
0.733333 0.566667 0
0.766667 0.566667 0
0.8 0.566667 0
0.833333 0.566667 0
0.866667 0.566667 0
0.9 0.566667 0
0.933333 0.566667 0
0.966667 0.566667 0
1 0.566667 0
0 0.6 0
0.0333333 0.6 0
0.0666667 0.6 0
0.1 0.6 0
0.133333 0.6 0
0.166667 0.6 0
0.2 0.6 0
0.233333 0.6 0
0.266667 0.6 0
0.3 0.6 0
0.333333 0.6 0
0.366667 0.6 0
0.4 0.6 0
0.433333 0.6 0
0.466667 0.6 0
0.5 0.6 0
0.533333 0.6 0
0.566667 0.6 0
0.6 0.6 0
0.633333 0.6 0
0.666667 0.6 0
0.7 0.6 0
0.733333 0.6 0
0.766667 0.6 0
0.8 0.6 0
0.833333 0.6 0
0.866667 0.6 0
0.9 0.6 0
0.933333 0.6 0
0.966667 0.6 0
1 0.6 0
0 0.633333 0
0.0333333 0.633333 0
0.0666667 0.633333 0
0.1 0.633333 0
0.133333 0.633333 0
0.166667 0.633333 0
0.2 0.633333 0
0.233333 0.633333 0
0.266667 0.633333 0
[...]
    <PointData>
      <DataArray type="Float64" NumberOfComponents="3" Name="Velocity" format="ascii">
0 0 0
0 0 0
0 0 0
0 0 0
0 0 0
0 0 0
0 0 0
0 0 0
0 0 0
0 0 0
0 0 0
0 0 0
0 0 0
0 0 0
0 0 0
0 0 0
0 0 0
0 0 0
0 0 0
0 0 0
0 0 0
0 0 0
0 0 0
0 0 0
0 0 0
0 0 0
0 0 0
0 0 0
0 0 0
0 0 0
0 0 0
0 0 0
0.0245174 -0.00976195 0
0.0194994 0.0182194 0
-0.0204364 0.0636291 0
-0.100672 0.106152 0
-0.193216 0.135295 0
-0.270077 0.140565 0
-0.329078 0.130733 0
-0.368041 0.114569 0
-0.392108 0.0959157 0
-0.406419 0.0786182 0
-0.414048 0.0629047 0
-0.418072 0.0490039 0
-0.419798 0.036355 0
-0.420535 0.0243972 0
-0.420728 0.0128154 0
-0.420818 0.00129435 0
-0.420694 -0.0105303 0
-0.420244 -0.023023 0
-0.418402 -0.0368524 0
-0.414105 -0.0526874 0
-0.404132 -0.0709966 0
-0.385262 -0.0922486 0
-0.350746 -0.111907 0
-0.293832 -0.125435 0
-0.216127 -0.125223 0
-0.119237 -0.103659 0
-0.0333016 -0.0671269 0
0.0115409 -0.0220116 0
0.0208037 0.00819488 0
0 0 0
0 0 0
0.00655959 -0.0100418 0
-0.0332551 0.0857284 0
-0.110242 0.202751 0
-0.215201 0.256464 0
-0.32094 0.26522 0
-0.400272 0.247369 0
-0.456046 0.215087 0
-0.491111 0.180549 0
-0.511482 0.147111 0
-0.523171 0.118131 0
-0.528897 0.0928803 0
-0.531382 0.0706295 0
-0.531751 0.050647 0
-0.531128 0.0322009 0
-0.529951 0.0146086 0
-0.528658 -0.00281271 0
-0.527199 -0.020753 0
-0.525523 -0.0399025 0
-0.522779 -0.0612699 0
-0.518116 -0.0858641 0
-0.508947 -0.115297 0
-0.492684 -0.151179 0
-0.462233 -0.189886 0
-0.410498 -0.227793 0
-0.333885 -0.252699 0
-0.228799 -0.252401 0
-0.122173 -0.206096 0
-0.0409415 -0.0929806 0
0.0035613 0.00352512 0
0 0 0
0 0 0
-0.0268577 0.018329 0
-0.102651 0.180031 0
-0.200209 0.349804 0
-0.292358 0.392344 0
-0.367406 0.362309 0
-0.413659 0.314355 0
-0.439555 0.259918 0
-0.453534 0.210434 0
-0.459733 0.167206 0
-0.462291 0.131537 0
-0.462384 0.101497 0
-0.461184 0.0751562 0
-0.459081 0.0517805 0
-0.456463 0.0306365 0
-0.453576 0.0107536 0
-0.450666 -0.00883907 0
-0.447786 -0.0290598 0
-0.444988 -0.0508267 0
-0.442084 -0.075279 0
-0.438891 -0.103556 0
-0.434753 -0.138334 0
-0.429015 -0.182292 0
-0.417544 -0.234664 0
-0.396207 -0.294685 0
-0.356109 -0.349529 0
-0.288356 -0.386369 0
-0.201627 -0.350781 0
-0.104603 -0.188342 0
-0.0273661 -0.0283247 0
0 0 0
0 0 0
-0.0487186 0.0945189 0
-0.133077 0.278633 0
-0.221127 0.43723 0
-0.280919 0.4552 0
-0.316849 0.399095 0
-0.333314 0.335465 0
-0.33826 0.272082 0
-0.339633 0.216718 0
-0.338472 0.16982 0
-0.335817 0.131834 0
-0.332344 0.100326 0
-0.328728 0.0728636 0
-0.32501 0.04866 0
-0.321226 0.0269296 0
-0.31751 0.00662474 0
-0.313991 -0.0133026 0
-0.310731 -0.0338421 0
-0.30779 -0.0559836 0
-0.305273 -0.0809058 0
-0.303288 -0.109788 0
-0.301857 -0.145545 0
-0.301005 -0.191093 0
-0.299764 -0.246972 0
-0.297166 -0.313722 0
-0.285631 -0.38281 0
-0.257577 -0.445699 0
-0.206675 -0.435053 0
-0.126599 -0.283532 0
-0.0476173 -0.10167 0
0 0 0
0 0 0
-0.0572632 0.182519 0
-0.130954 0.364308 0
-0.193943 0.482182 0
-0.219101 0.472955 0
-0.221673 0.401221 0
-0.216902 0.331569 0
-0.209644 0.267217 0
-0.204756 0.211385 0
-0.200666 0.164335 0
-0.195803 0.126333 0
-0.190749 0.0949661 0
-0.186084 0.0678231 0
-0.18173 0.0440218 0
-0.177609 0.0226801 0
-0.173788 0.00278713 0
-0.170334 -0.0166679 0
-0.167282 -0.0366584 0
-0.164667 -0.0581578 0
-0.162673 -0.0823403 0
-0.161486 -0.11038 0
-0.161233 -0.14494 0
-0.162038 -0.188683 0
-0.165233 -0.2424 0
-0.17215 -0.306883 0
-0.179056 -0.379613 0
-0.182217 -0.458069 0
-0.166745 -0.474893 0
-0.11775 -0.362728 0
-0.0554339 -0.183715 0
0 0 0
0 0 0
-0.0507315 0.246322 0
-0.102703 0.419833 0
-0.139604 0.501811 0
-0.145127 0.473533 0
-0.134284 0.39433 0
-0.122087 0.323537 0
-0.111191 0.260963 0
-0.104248 0.206418 0
-0.0992799 0.160136 0
-0.0943068 0.122347 0
-0.0895726 0.0910162 0
-0.0853211 0.0641065 0
-0.0814361 0.0406022 0
-0.0778018 0.0194877 0
-0.0744457 -0.000194019 0
-0.0713958 -0.0193996 0
-0.0686871 -0.039067 0
-0.0663551 -0.0601341 0
-0.0646114 -0.0837721 0
-0.0636678 -0.111152 0
-0.0638535 -0.144531 0
-0.0654978 -0.186165 0
-0.0702935 -0.236541 0
-0.0799334 -0.296147 0
-0.0929896 -0.367008 0
-0.108034 -0.451153 0
-0.111264 -0.486284 0
-0.0888751 -0.410108 0
-0.0490572 -0.241665 0
0 0 0
0 0 0
-0.0370036 0.284653 0
-0.0653501 0.446987 0
-0.0795856 0.501224 0
-0.074256 0.461589 0
-0.0597455 0.380995 0
-0.046438 0.312357 0
-0.0356073 0.253193 0
-0.0285271 0.201023 0
-0.0236528 0.156172 0
-0.0194396 0.118964 0
-0.0157801 0.0878182 0
-0.0125671 0.0611523 0
-0.00965067 0.0378786 0
-0.00688133 0.016909 0
-0.00427038 -0.00265862 0
-0.00182917 -0.0217263 0
0.000398666 -0.041185 0
0.00236949 -0.0619261 0
0.00385141 -0.0850739 0
0.00461255 -0.111753 0
0.00412418 -0.143799 0
0.00185756 -0.183046 0
-0.00343801 -0.229513 0
-0.0130133 -0.283222 0
-0.0266279 -0.349157 0
-0.0440416 -0.432302 0
-0.0562409 -0.477498 0
-0.0542124 -0.429588 0
-0.0360881 -0.274959 0
0 0 0
0 0 0
-0.0239597 0.296243 0
-0.0359231 0.447548 0
-0.035362 0.485524 0
-0.021748 0.441778 0
-0.00312115 0.363785 0
0.0124788 0.299016 0
0.0244 0.243784 0
0.0319903 0.194404 0
0.0368765 0.151394 0
0.0406856 0.115271 0
0.0436619 0.0847138 0
0.0460499 0.0583992 0
0.0481033 0.0353278 0
0.050076 0.0145004 0
0.0519515 -0.00494659 0
0.0537135 -0.0238764 0
0.0553207 -0.0431297 0
0.0567322 -0.0635473 0
0.0576559 -0.0861186 0
0.0577996 -0.111833 0
0.0565443 -0.142226 0
0.0532713 -0.178832 0
0.0468407 -0.221435 0
0.0361126 -0.269819 0
0.0208328 -0.330218 0
0.000747038 -0.408867 0
-0.0176838 -0.456807 0
-0.0279987 -0.425083 0
-0.0241275 -0.283033 0
0 0 0
0 0 0
-0.0128273 0.289853 0
-0.0140546 0.430391 0
-0.00456402 0.459878 0
0.0147621 0.416578 0
0.0369728 0.343544 0
0.0551168 0.283827 0
0.0686595 0.233092 0
0.0770664 0.187003 0
0.0822075 0.146278 0
0.0859529 0.111634 0
0.0885943 0.0819552 0
0.0904236 0.0561251 0
0.0918023 0.033298 0
0.0930918 0.012628 0
0.0942763 -0.00669683 0
0.0953398 -0.0254883 0
0.0962412 -0.0445259 0
0.0969393 -0.0645892 0
0.097082 -0.0864971 0
0.0963167 -0.111069 0
0.0940096 -0.139597 0
0.0895264 -0.173376 0
0.0816873 -0.212075 0
0.0693125 -0.255362 0
0.0521238 -0.30995 0
0.029843 -0.382547 0
0.00766823 -0.429086 0
-0.00920267 -0.405499 0
-0.0140115 -0.274799 0
0 0 0
0 0 0
-0.00483391 0.27425 0
0.000622739 0.404393 0
0.015178 0.429455 0
0.0376399 0.388464 0
0.0619199 0.321115 0
0.0819296 0.267104 0
0.0970004 0.221472 0
0.106464 0.179263 0
0.112239 0.141303 0
0.116246 0.10842 0
0.118858 0.0797945 0
0.120448 0.0546079 0
0.121423 0.0321369 0
0.122188 0.0116578 0
0.12276 -0.00754822 0
0.123158 -0.0262002 0
0.123322 -0.0449983 0
0.123197 -0.0646429 0
0.12241 -0.0858004 0
0.120588 -0.109137 0
0.117122 -0.135699 0
0.111406 -0.166532 0
0.102247 -0.201204 0
0.0884546 -0.23928 0
0.0699761 -0.28811 0
0.046758 -0.355042 0
0.0230764 -0.399209 0
0.00320733 -0.379742 0
-0.00657589 -0.259165 0
0 0 0
0 0 0
0.000158367 0.252397 0
0.00894991 0.372742 0
0.0256091 0.396431 0
0.0493703 0.358865 0
0.0746824 0.297348 0
0.0959938 0.249182 0
0.112393 0.208847 0
0.122969 0.17082 0
0.129581 0.135959 0
0.13409 0.105121 0
0.136926 0.077785 0
0.138522 0.0534336 0
0.139309 0.0314651 0
0.139718 0.0112783 0
0.139801 -0.00773426 0
0.139612 -0.0261796 0
0.139082 -0.0446632 0
0.138142 -0.0637906 0
0.136418 -0.0840892 0
0.133533 -0.106086 0
0.128933 -0.130603 0
0.122064 -0.15846 0
0.111762 -0.18917 0
0.0968676 -0.222245 0
0.0776204 -0.265644 0
0.0542606 -0.327327 0
0.0304793 -0.368392 0
0.00996755 -0.349942 0
-0.0019628 -0.238352 0
0 0 0
0 0 0
0.00228749 0.227257 0
0.0117681 0.338626 0
0.0284743 0.362984 0
0.0524385 0.329212 0
0.078222 0.27309 0
0.100386 0.230399 0
0.117809 0.19514 0
0.129368 0.161313 0
0.136841 0.129736 0
0.142006 0.101227 0
0.145271 0.0754801 0
0.147043 0.0521881 0
0.147805 0.0309033 0
0.148036 0.0111776 0
0.147798 -0.00748841 0
0.147149 -0.025594 0
0.146038 -0.0436368 0
0.144412 -0.0621143 0
0.141886 -0.0814244 0
0.138075 -0.101965 0
0.132493 -0.124381 0
0.124654 -0.149318 0
0.113477 -0.176319 0
0.0978806 -0.204929 0
0.0782873 -0.243498 0
0.0551194 -0.300376 0
0.0318155 -0.337855 0
0.0118143 -0.318229 0
-0.000314295 -0.214582 0
0 0 0
0 0 0
0.00192442 0.200449 0
0.0101041 0.303548 0
0.0254411 0.329858 0
0.0488374 0.299935 0
0.074665 0.248709 0
0.0972955 0.211106 0
0.115422 0.180684 0
0.127738 0.151 0
0.135946 0.122792 0
0.141749 0.0967991 0
0.145493 0.0728612 0
0.147523 0.0508196 0
0.148364 0.0303852 0
0.148538 0.0112687 0
0.148106 -0.0069177 0
0.147128 -0.0245619 0
0.145573 -0.0420507 0
0.143412 -0.0597706 0
0.140253 -0.077995 0
0.13571 -0.0969972 0
0.129371 -0.117293 0
0.120823 -0.139398 0
0.109051 -0.162924 0
0.0930363 -0.187484 0
0.0733522 -0.221715 0
0.0505707 -0.274253 0
0.0281778 -0.307979 0
0.00965925 -0.285768 0
-0.00104621 -0.189237 0
0 0 0
0 0 0
-0.000559856 0.173589 0
0.00498473 0.269012 0
0.0181771 0.297795 0
0.0405604 0.271466 0
0.0661377 0.224571 0
0.0889117 0.191655 0
0.10741 0.165813 0
0.120159 0.140141 0
0.128826 0.115286 0
0.135075 0.0918941 0
0.139195 0.0699098 0
0.141474 0.0492766 0
0.142439 0.0298448 0
0.142617 0.0114646 0
0.142082 -0.00612917 0
0.140909 -0.023202 0
0.139072 -0.0400367 0
0.136547 -0.0569162 0
0.13296 -0.0739897 0
0.127937 -0.0914064 0
0.121137 -0.109597 0
0.112218 -0.128992 0
0.100144 -0.149257 0
0.083878 -0.170059 0
0.0641905 -0.200336 0
0.0418506 -0.249024 0
0.0206585 -0.279147 0
0.00441432 -0.253726 0
-0.0035744 -0.163699 0
0 0 0
0 0 0
-0.00471372 0.146746 0
-0.0030415 0.235066 0
0.00719993 0.26682 0
0.0281938 0.243866 0
0.0533312 0.200807 0
0.0760031 0.172246 0
0.0945941 0.150777 0
0.107489 0.128992 0
0.116353 0.107442 0
0.122852 0.0866777 0
0.12722 0.0667186 0
0.129688 0.0475846 0
0.130776 0.0292523 0
0.130998 0.0116982 0
0.130436 -0.00522129 0
0.12917 -0.0216498 0
0.127185 -0.0377657 0
0.124463 -0.0537472 0
0.120643 -0.0696312 0
0.115363 -0.0854545 0
0.108348 -0.101578 0
0.0993255 -0.118361 0
0.0871846 -0.135515 0
0.0708153 -0.152749 0
0.051192 -0.179359 0
0.0292894 -0.22464 0
0.00950654 -0.251331 0
-0.00375724 -0.222172 0
-0.00782006 -0.138087 0
0 0 0
0 0 0
-0.0100855 0.119987 0
-0.0134261 0.201763 0
-0.00697257 0.236957 0
0.0123241 0.217196 0
0.0369368 0.177549 0
0.0593382 0.153081 0
0.077798 0.135824 0
0.0905857 0.117808 0
0.0994024 0.0994867 0
0.105949 0.0813152 0
0.110408 0.0633805 0
0.11296 0.0457696 0
0.114121 0.0285783 0
0.114405 0.0119024 0
0.113874 -0.00429256 0
0.112591 -0.0200413 0
0.110564 -0.0354087 0
0.107804 -0.0504595 0
0.103937 -0.0651418 0
0.0985923 -0.0794036 0
0.0915609 -0.0935206 0
0.0826339 -0.107769 0
0.0706025 -0.121895 0
0.0542577 -0.135648 0
0.0347468 -0.158784 0
0.0132173 -0.201056 0
-0.00502946 -0.224506 0
-0.0146921 -0.191175 0
-0.0137044 -0.11252 0
0 0 0
0 0 0
-0.0176316 0.0936273 0
-0.0270669 0.169331 0
-0.0247839 0.208239 0
-0.00726046 0.191475 0
0.0168158 0.15489 0
0.0387573 0.134332 0
0.0568084 0.121179 0
0.0692136 0.106808 0
0.0777315 0.091603 0
0.0841207 0.0759493 0
0.0885194 0.059993 0
0.0910658 0.0438805 0
0.0922616 0.027826 0
0.0926085 0.0120436 0
0.0921444 -0.00340101 0
0.090907 -0.0184425 0
0.0889258 -0.0330435 0
0.0862302 -0.0471664 0
0.0824493 -0.0606654 0
0.0772122 -0.0733946 0
0.0703484 -0.0855514 0
0.0616876 -0.0973334 0
0.0499226 -0.108509 0
0.0337461 -0.118848 0
0.0144715 -0.138602 0
-0.00658761 -0.178027 0
-0.0231466 -0.198356 0
-0.0289206 -0.160822 0
-0.0218813 -0.0873837 0
0 0 0
0 0 0
-0.0283082 0.0679842 0
-0.0448619 0.138002 0
-0.0466775 0.180699 0
-0.0307718 0.166721 0
-0.00717042 0.132926 0
0.0141006 0.116171 0
0.0314125 0.107063 0
0.0431366 0.0962096 0
0.0510977 0.0839747 0
0.0571202 0.0707229 0
0.0613119 0.0566537 0
0.0637804 0.0419666 0
0.0649838 0.026999 0
0.0653796 0.0120884 0
0.0649948 -0.00260467 0
0.0638559 -0.0169195 0
0.061985 -0.0307478 0
0.0594036 -0.043981 0
0.0557862 -0.0563457 0
0.0508074 -0.0675685 0
0.0442835 -0.077796 0
0.0360311 -0.087175 0
0.0246703 -0.0954679 0
0.00882135 -0.102437 0
-0.0100174 -0.11881 0
-0.0303475 -0.155312 0
-0.0450419 -0.172568 0
-0.0469732 -0.131202 0
-0.0330047 -0.0630635 0
0 0 0
0 0 0
-0.0402917 0.0428449 0
-0.0658919 0.107866 0
-0.0735287 0.154781 0
-0.0599303 0.143308 0
-0.0369441 0.111845 0
-0.0164177 0.0987917 0
8.84403e-05 0.0937422 0
0.0110139 0.0862919 0
0.0183057 0.0768467 0
0.0239108 0.065812 0
0.0278814 0.053469 0
0.0302696 0.0400986 0
0.0314861 0.0261498 0
0.0319412 0.0120713 0
0.0316506 -0.00189489 0
0.0306294 -0.015507 0
0.0288928 -0.0285858 0
0.0264555 -0.0409523 0
0.0230234 -0.0522324 0
0.0183023 -0.0620522 0
0.0121349 -0.0704507 0
0.00436408 -0.0774666 0
-0.00652547 -0.0828833 0
-0.0220492 -0.086484 0
-0.0404723 -0.0994837 0
-0.0600601 -0.133098 0
-0.0722371 -0.147433 0
-0.0684276 -0.102597 0
-0.0454194 -0.0397364 0
0 0 0
0 0 0
-0.0517585 0.017997 0
-0.0892381 0.0790162 0
-0.106213 0.13093 0
-0.0964566 0.121612 0
-0.0744274 0.0918399 0
-0.0545831 0.0823899 0
-0.0386853 0.0814813 0
-0.0284956 0.0773329 0
-0.02184 0.0704636 0
-0.0165445 0.0613926 0
-0.012676 0.0505454 0
-0.0103014 0.0383476 0
-0.00903313 0.0253311 0
-0.00848361 0.0120273 0
-0.00866277 -0.00126305 0
-0.00958053 -0.0142395 0
-0.0111994 -0.0266217 0
-0.013482 -0.0381293 0
-0.0167635 -0.0483753 0
-0.021379 -0.0569726 0
-0.0273289 -0.0637114 0
-0.0346134 -0.0683817 0
-0.0450356 -0.0708677 0
-0.0603982 -0.0710533 0
-0.0786458 -0.0807011 0
-0.0977231 -0.111574 0
-0.106254 -0.123244 0
-0.092862 -0.0752872 0
-0.0574699 -0.0175798 0
0 0 0
0 0 0
-0.0673906 -0.00285325 0
-0.118629 0.0551942 0
-0.145794 0.111321 0
-0.140967 0.102706 0
-0.120792 0.0732432 0
-0.101915 0.0668274 0
-0.0865549 0.0698627 0
-0.0769304 0.0687535 0
-0.070693 0.0641986 0
-0.065494 0.0568968 0
-0.0615414 0.0474259 0
-0.0590432 0.0363634 0
-0.0576314 0.0242902 0
-0.0569381 0.0117871 0
-0.056995 -0.000790069 0
-0.0578334 -0.0130852 0
-0.0593937 -0.0247289 0
-0.0616165 -0.0353521 0
-0.0648627 -0.0445514 0
-0.0694935 -0.0519237 0
-0.0753837 -0.0570605 0
-0.0824078 -0.0595534 0
-0.0925011 -0.0592898 0
-0.107599 -0.0561571 0
-0.125352 -0.0631809 0
-0.143412 -0.0933865 0
-0.147518 -0.104321 0
-0.123407 -0.0535325 0
-0.0734456 0.000675823 0
0 0 0
0 0 0
-0.0918703 -0.0159998 0
-0.157792 0.0401416 0
-0.193337 0.0981272 0
-0.194078 0.0876598 0
-0.177211 0.0563894 0
-0.159934 0.0519662 0
-0.145166 0.0584686 0
-0.135829 0.0599749 0
-0.129607 0.0574245 0
-0.124186 0.0517569 0
-0.119896 0.0436536 0
-0.117066 0.0337959 0
-0.115366 0.0227748 0
-0.114466 0.0111813 0
-0.114396 -0.000556915 0
-0.115189 -0.0120121 0
-0.116792 -0.022781 0
-0.119155 -0.0324605 0
-0.122562 -0.0405378 0
-0.127299 -0.0464997 0
-0.133306 -0.0499806 0
-0.140525 -0.0506147 0
-0.150563 -0.048018 0
-0.165024 -0.0418069 0
-0.181405 -0.0476418 0
-0.197203 -0.0811834 0
-0.196454 -0.0949829 0
-0.163192 -0.0415913 0
-0.0976356 0.0123001 0
0 0 0
0 0 0
-0.118258 -0.0222718 0
-0.205432 0.0317929 0
-0.255302 0.0888536 0
-0.261652 0.0755697 0
-0.245793 0.0422481 0
-0.22904 0.0391959 0
-0.214377 0.0484647 0
-0.204786 0.0521062 0
-0.198111 0.0512254 0
-0.192196 0.0469275 0
-0.187404 0.0400153 0
-0.184097 0.0312916 0
-0.18201 0.0213098 0
-0.180879 0.0106229 0
-0.180709 -0.000280935 0
-0.181501 -0.0109137 0
-0.183226 -0.0208344 0
-0.185854 -0.0296019 0
-0.189564 -0.0366487 0
-0.194533 -0.0414074 0
-0.200801 -0.043451 0
-0.208409 -0.0423525 0
-0.218708 -0.0377715 0
-0.23305 -0.0293674 0
-0.248934 -0.0348077 0
-0.263855 -0.07176 0
-0.257546 -0.0892232 0
-0.209739 -0.0361963 0
-0.123027 0.0169887 0
0 0 0
0 0 0
-0.139615 -0.0224982 0
-0.260252 0.0280826 0
-0.338152 0.0810049 0
-0.349551 0.0655311 0
-0.328647 0.0317889 0
-0.309636 0.0299061 0
-0.294043 0.0410172 0
-0.283394 0.0462567 0
-0.275732 0.0466851 0
-0.2691 0.043363 0
-0.263731 0.0372979 0
-0.259862 0.0294973 0
-0.257334 0.02042 0
-0.255993 0.0105248 0
-0.255777 0.000320515 0
-0.256624 -0.00968382 0
-0.258526 -0.0189458 0
-0.26147 -0.0269232 0
-0.265569 -0.0331982 0
-0.270935 -0.0373533 0
-0.277576 -0.0384509 0
-0.285501 -0.0355539 0
-0.296422 -0.0292689 0
-0.312054 -0.0202031 0
-0.330065 -0.0254022 0
-0.348124 -0.0619117 0
-0.335276 -0.0810364 0
-0.260568 -0.0340805 0
-0.142606 0.0144376 0
0 0 0
0 0 0
-0.147814 0.00349878 0
-0.299068 0.0470381 0
-0.409977 0.0824234 0
-0.436754 0.0614604 0
-0.421288 0.027519 0
-0.405471 0.0239695 0
-0.391004 0.0337141 0
-0.379589 0.0396548 0
-0.370484 0.0415814 0
-0.362944 0.0392837 0
-0.356948 0.0340855 0
-0.352472 0.0273105 0
-0.349452 0.0192777 0
-0.347823 0.0103057 0
-0.347523 0.000932354 0
-0.34849 -0.00830429 0
-0.350678 -0.0167979 0
-0.354044 -0.0239422 0
-0.358571 -0.0294559 0
-0.364241 -0.0330578 0
-0.371191 -0.0332749 0
-0.379559 -0.0286344 0
-0.390131 -0.0215265 0
-0.403696 -0.0143411 0
-0.417635 -0.0217852 0
-0.42933 -0.0585654 0
-0.401017 -0.0831329 0
-0.294934 -0.0539393 0
-0.148715 -0.0124173 0
0 0 0
0 0 0
-0.13473 0.075897 0
-0.298695 0.106687 0
-0.438872 0.100952 0
-0.502236 0.0672739 0
-0.519229 0.0319456 0
-0.520295 0.0212591 0
-0.5121 0.0241437 0
-0.501305 0.029529 0
-0.490376 0.0336919 0
-0.481779 0.0329096 0
-0.475128 0.028962 0
-0.47004 0.023629 0
-0.466472 0.017055 0
-0.464385 0.00938434 0
-0.463872 0.0012395 0
-0.465027 -0.00675717 0
-0.46767 -0.0140733 0
-0.47162 -0.0201765 0
-0.476563 -0.0246911 0
-0.482186 -0.0272411 0
-0.489205 -0.0262172 0
-0.49834 -0.0200099 0
-0.50626 -0.01356 0
-0.509635 -0.0118083 0
-0.504476 -0.0263168 0
-0.486789 -0.0686476 0
-0.42614 -0.108224 0
-0.292094 -0.114468 0
-0.133698 -0.0806402 0
0 0 0
0 0 0
-0.080007 0.135863 0
-0.204983 0.15534 0
-0.331888 0.115157 0
-0.417682 0.0720391 0
-0.47113 0.0362212 0
-0.500995 0.0179379 0
-0.513295 0.0126354 0
-0.514048 0.0157599 0
-0.509282 0.0209571 0
-0.505024 0.021873 0
-0.501215 0.0199427 0
-0.497801 0.0166014 0
-0.495068 0.0120423 0
-0.493305 0.00645833 0
-0.492772 0.000468598 0
-0.493728 -0.00530777 0
-0.495876 -0.0106057 0
-0.498919 -0.01516 0
-0.502003 -0.0182121 0
-0.504273 -0.0190036 0
-0.506361 -0.0166827 0
-0.508893 -0.0103976 0
-0.50421 -0.00664022 0
-0.484653 -0.0119023 0
-0.449763 -0.0332275 0
-0.399085 -0.0776593 0
-0.31975 -0.126729 0
-0.198892 -0.161967 0
-0.0783597 -0.135637 0
0 0 0
2.77334e-30 0 0
0.0367095 0.124565 0
0.0362197 0.141311 0
0.00392524 0.103607 0
-0.0547791 0.0648236 0
-0.125652 0.0314981 0
-0.194453 0.0101689 0
-0.250553 -0.000481799 0
-0.283325 -0.00177195 0
-0.301072 0.00131763 0
-0.312099 0.00380608 0
-0.318155 0.0050427 0
-0.320991 0.00437677 0
-0.321909 0.00253026 0
-0.32221 0.000225129 0
-0.322177 -0.00215372 0
-0.322088 -0.0042214 0
-0.321673 -0.00622867 0
-0.320663 -0.0084263 0
-0.317346 -0.00932748 0
-0.310009 -0.00744537 0
-0.2974 -0.00407584 0
-0.278267 -0.000514761 0
-0.243384 -0.00203792 0
-0.183526 -0.0139211 0
-0.112672 -0.0367478 0
-0.0447992 -0.0711014 0
0.00904872 -0.109069 0
0.0378269 -0.142738 0
0.0364919 -0.122814 0
2.77334e-30 0 0
0.25 0 0
0.351389 0.0699583 0
0.434638 0.0832975 0
0.478058 0.0654917 0
0.459955 0.0420147 0
0.402845 0.0190124 0
0.329241 0.00263029 0
0.25944 -0.00732213 0
0.213734 -0.0110355 0
0.18508 -0.0105577 0
0.166431 -0.00793648 0
0.155201 -0.00513813 0
0.148804 -0.00412905 0
0.145586 -0.00398319 0
0.143893 -0.00377455 0
0.14354 -0.0033893 0
0.14434 -0.00271361 0
0.146449 -0.00225566 0
0.150019 -0.00252362 0
0.156843 -0.00195186 0
0.168714 0.00102526 0
0.187959 0.00401458 0
0.216908 0.00462298 0
0.26257 0.000193349 0
0.331954 -0.0119314 0
0.404636 -0.0284734 0
0.460189 -0.0461548 0
0.476788 -0.0639309 0
0.432609 -0.0807573 0
0.349673 -0.0687437 0
0.25 0 0
1 0 0
1 0 0
1 0 0
1 0 0
1 0 0
1 0 0
1 0 0
1 0 0
1 0 0
1 0 0
1 0 0
1 0 0
1 0 0
1 0 0
1 0 0
1 0 0
1 0 0
1 0 0
1 0 0
1 0 0
1 0 0
1 0 0
1 0 0
1 0 0
1 0 0
1 0 0
1 0 0
1 0 0
1 0 0
1 0 0
1 0 0
      </DataArray> 
      <DataArray type="Float64" NumberOfComponents="3" Name="Real Velocity" format="ascii">
0 0 0
0 0 0
0 0 0
0 0 0
0 0 0
0 0 0
0 0 0
0 0 0
0 0 0
0 0 0
0 0 0
0 0 0
0 0 0
0 0 0
0 0 0
0 0 0
0 0 0
0 0 0
0 0 0
0 0 0
0 0 0
0 0 0
0 0 0
0 0 0
0 0 0
0 0 0
0 0 0
0 0 0
0 0 0
0 0 0
0 0 0
0 0 0
0.0245174 -0.00976195 0
0.0194994 0.0182194 0
-0.0204364 0.0636291 0
-0.100672 0.106152 0
-0.193216 0.135295 0
-0.270077 0.140565 0
-0.329078 0.130733 0
-0.368041 0.114569 0
-0.392108 0.0959157 0
-0.406419 0.0786182 0
-0.414048 0.0629047 0