<?xml version="1.0"?>
<VTKFile type="UnstructuredGrid">
  <UnstructuredGrid>
  <Piece NumberOfPoints="961"  NumberOfCells="225">
    <Points>
      <DataArray type="Float64" NumberOfComponents="3" format="ascii">
0 0 0
0.0333333 0 0
0.0666667 0 0
0.1 0 0
0.133333 0 0
0.166667 0 0
0.2 0 0
0.233333 0 0
0.266667 0 0
0.3 0 0
0.333333 0 0
0.366667 0 0
0.4 0 0
0.433333 0 0
0.466667 0 0
0.5 0 0
0.533333 0 0
0.566667 0 0
0.6 0 0
0.633333 0 0
0.666667 0 0
0.7 0 0
0.733333 0 0
0.766667 0 0
0.8 0 0
0.833333 0 0
0.866667 0 0
0.9 0 0
0.933333 0 0
0.966667 0 0
1 0 0
0 0.0333333 0
0.0333333 0.0333333 0
0.0666667 0.0333333 0
0.1 0.0333333 0
0.133333 0.0333333 0
0.166667 0.0333333 0
0.2 0.0333333 0
0.233333 0.0333333 0
0.266667 0.0333333 0
0.3 0.0333333 0
0.333333 0.0333333 0
0.366667 0.0333333 0
0.4 0.0333333 0
0.433333 0.0333333 0
0.466667 0.0333333 0
0.5 0.0333333 0
0.533333 0.0333333 0
0.566667 0.0333333 0
0.6 0.0333333 0
0.633333 0.0333333 0
0.666667 0.0333333 0
0.7 0.0333333 0
0.733333 0.0333333 0
0.766667 0.0333333 0
0.8 0.0333333 0
0.833333 0.0333333 0
0.866667 0.0333333 0
0.9 0.0333333 0
0.933333 0.0333333 0
0.966667 0.0333333 0
1 0.0333333 0
0 0.0666667 0
0.0333333 0.0666667 0
0.0666667 0.0666667 0
0.1 0.0666667 0
0.133333 0.0666667 0
0.166667 0.0666667 0
0.2 0.0666667 0
0.233333 0.0666667 0
0.266667 0.0666667 0
0.3 0.0666667 0
0.333333 0.0666667 0
0.366667 0.0666667 0
0.4 0.0666667 0
0.433333 0.0666667 0
0.466667 0.0666667 0
0.5 0.0666667 0
0.533333 0.0666667 0
0.566667 0.0666667 0
0.6 0.0666667 0
0.633333 0.0666667 0
0.666667 0.0666667 0
0.7 0.0666667 0
0.733333 0.0666667 0
0.766667 0.0666667 0
0.8 0.0666667 0
0.833333 0.0666667 0
0.866667 0.0666667 0
0.9 0.0666667 0
0.933333 0.0666667 0
0.966667 0.0666667 0
1 0.0666667 0
0 0.1 0
0.0333333 0.1 0
0.0666667 0.1 0
0.1 0.1 0
0.133333 0.1 0
0.166667 0.1 0
0.2 0.1 0
0.233333 0.1 0
0.266667 0.1 0
0.3 0.1 0
0.333333 0.1 0
0.366667 0.1 0
0.4 0.1 0
0.433333 0.1 0
0.466667 0.1 0
0.5 0.1 0
0.533333 0.1 0
0.566667 0.1 0
0.6 0.1 0
0.633333 0.1 0
0.666667 0.1 0
0.7 0.1 0
0.733333 0.1 0
0.766667 0.1 0
0.8 0.1 0
0.833333 0.1 0
0.866667 0.1 0
0.9 0.1 0
0.933333 0.1 0
0.966667 0.1 0
1 0.1 0
0 0.133333 0
0.0333333 0.133333 0
0.0666667 0.133333 0
0.1 0.133333 0
0.133333 0.133333 0
0.166667 0.133333 0
0.2 0.133333 0
0.233333 0.133333 0
0.266667 0.133333 0
0.3 0.133333 0
0.333333 0.133333 0
0.366667 0.133333 0
0.4 0.133333 0
0.433333 0.133333 0
0.466667 0.133333 0
0.5 0.133333 0
0.533333 0.133333 0
0.566667 0.133333 0
0.6 0.133333 0
0.633333 0.133333 0
0.666667 0.133333 0
0.7 0.133333 0
0.733333 0.133333 0
0.766667 0.133333 0
0.8 0.133333 0
0.833333 0.133333 0
0.866667 0.133333 0
0.9 0.133333 0
0.933333 0.133333 0
0.966667 0.133333 0
1 0.133333 0
0 0.166667 0
0.0333333 0.166667 0
0.0666667 0.166667 0
0.1 0.166667 0
0.133333 0.166667 0
0.166667 0.166667 0
0.2 0.166667 0
0.233333 0.166667 0
0.266667 0.166667 0
0.3 0.166667 0
0.333333 0.166667 0
0.366667 0.166667 0
0.4 0.166667 0
0.433333 0.166667 0
0.466667 0.166667 0
0.5 0.166667 0
0.533333 0.166667 0
0.566667 0.166667 0
0.6 0.166667 0
0.633333 0.166667 0
0.666667 0.166667 0
0.7 0.166667 0
0.733333 0.166667 0
0.766667 0.166667 0
0.8 0.166667 0
0.833333 0.166667 0
0.866667 0.166667 0
0.9 0.166667 0
0.933333 0.166667 0
0.966667 0.166667 0
1 0.166667 0
0 0.2 0
0.0333333 0.2 0
0.0666667 0.2 0
0.1 0.2 0
0.133333 0.2 0
0.166667 0.2 0
0.2 0.2 0
0.233333 0.2 0
0.266667 0.2 0
0.3 0.2 0
0.333333 0.2 0
0.366667 0.2 0
0.4 0.2 0
0.433333 0.2 0
0.466667 0.2 0
0.5 0.2 0
0.533333 0.2 0
0.566667 0.2 0
0.6 0.2 0
0.633333 0.2 0
0.666667 0.2 0
0.7 0.2 0
0.733333 0.2 0
0.766667 0.2 0
0.8 0.2 0
0.833333 0.2 0
0.866667 0.2 0
0.9 0.2 0
0.933333 0.2 0
0.966667 0.2 0
1 0.2 0
0 0.233333 0
0.0333333 0.233333 0
0.0666667 0.233333 0
0.1 0.233333 0
0.133333 0.233333 0
0.166667 0.233333 0
0.2 0.233333 0
0.233333 0.233333 0
0.266667 0.233333 0
0.3 0.233333 0
0.333333 0.233333 0
0.366667 0.233333 0
0.4 0.233333 0
0.433333 0.233333 0
0.466667 0.233333 0
0.5 0.233333 0
0.533333 0.233333 0
0.566667 0.233333 0
0.6 0.233333 0
0.633333 0.233333 0
0.666667 0.233333 0
0.7 0.233333 0
0.733333 0.233333 0
0.766667 0.233333 0
0.8 0.233333 0
0.833333 0.233333 0
0.866667 0.233333 0
0.9 0.233333 0
0.933333 0.233333 0
0.966667 0.233333 0
1 0.233333 0
0 0.266667 0
0.0333333 0.266667 0
0.0666667 0.266667 0
0.1 0.266667 0
0.133333 0.266667 0
0.166667 0.266667 0
0.2 0.266667 0
0.233333 0.266667 0
0.266667 0.266667 0
0.3 0.266667 0
0.333333 0.266667 0
0.366667 0.266667 0
0.4 0.266667 0
0.433333 0.266667 0
0.466667 0.266667 0
0.5 0.266667 0
0.533333 0.266667 0
0.566667 0.266667 0
0.6 0.266667 0
0.633333 0.266667 0
0.666667 0.266667 0
0.7 0.266667 0
0.733333 0.266667 0
0.766667 0.266667 0
0.8 0.266667 0
0.833333 0.266667 0
0.866667 0.266667 0
0.9 0.266667 0
0.933333 0.266667 0
0.966667 0.266667 0
1 0.266667 0
0 0.3 0
0.0333333 0.3 0
0.0666667 0.3 0
0.1 0.3 0
0.133333 0.3 0
0.166667 0.3 0
0.2 0.3 0
0.233333 0.3 0
0.266667 0.3 0
0.3 0.3 0
0.333333 0.3 0
0.366667 0.3 0
0.4 0.3 0
0.433333 0.3 0
0.466667 0.3 0
0.5 0.3 0
0.533333 0.3 0
0.566667 0.3 0
0.6 0.3 0
0.633333 0.3 0
0.666667 0.3 0
0.7 0.3 0
0.733333 0.3 0
0.766667 0.3 0
0.8 0.3 0
0.833333 0.3 0
0.866667 0.3 0
0.9 0.3 0
0.933333 0.3 0
0.966667 0.3 0
1 0.3 0
0 0.333333 0
0.0333333 0.333333 0
0.0666667 0.333333 0
0.1 0.333333 0
0.133333 0.333333 0
0.166667 0.333333 0
0.2 0.333333 0
0.233333 0.333333 0
0.266667 0.333333 0
0.3 0.333333 0
0.333333 0.333333 0
0.366667 0.333333 0
0.4 0.333333 0
0.433333 0.333333 0
0.466667 0.333333 0
0.5 0.333333 0
0.533333 0.333333 0
0.566667 0.333333 0
0.6 0.333333 0
0.633333 0.333333 0
0.666667 0.333333 0
0.7 0.333333 0
0.733333 0.333333 0
0.766667 0.333333 0
0.8 0.333333 0
0.833333 0.333333 0
0.866667 0.333333 0
0.9 0.333333 0
0.933333 0.333333 0
0.966667 0.333333 0
1 0.333333 0
0 0.366667 0
0.0333333 0.366667 0
0.0666667 0.366667 0
0.1 0.366667 0
0.133333 0.366667 0
0.166667 0.366667 0
0.2 0.366667 0
0.233333 0.366667 0
0.266667 0.366667 0
0.3 0.366667 0
0.333333 0.366667 0
0.366667 0.366667 0
0.4 0.366667 0
0.433333 0.366667 0
0.466667 0.366667 0
0.5 0.366667 0
0.533333 0.366667 0
0.566667 0.366667 0
0.6 0.366667 0
0.633333 0.366667 0
0.666667 0.366667 0
0.7 0.366667 0
0.733333 0.366667 0
0.766667 0.366667 0
0.8 0.366667 0
0.833333 0.366667 0
0.866667 0.366667 0
0.9 0.366667 0
0.933333 0.366667 0
0.966667 0.366667 0
1 0.366667 0
0 0.4 0
0.0333333 0.4 0
0.0666667 0.4 0
0.1 0.4 0
0.133333 0.4 0
0.166667 0.4 0
0.2 0.4 0
0.233333 0.4 0
0.266667 0.4 0
0.3 0.4 0
0.333333 0.4 0
0.366667 0.4 0
0.4 0.4 0
0.433333 0.4 0
0.466667 0.4 0
0.5 0.4 0
0.533333 0.4 0
0.566667 0.4 0
0.6 0.4 0
0.633333 0.4 0
0.666667 0.4 0
0.7 0.4 0
0.733333 0.4 0
0.766667 0.4 0
0.8 0.4 0
0.833333 0.4 0
0.866667 0.4 0
0.9 0.4 0
0.933333 0.4 0
0.966667 0.4 0
1 0.4 0
0 0.433333 0
0.0333333 0.433333 0
0.0666667 0.433333 0
0.1 0.433333 0
0.133333 0.433333 0
0.166667 0.433333 0
0.2 0.433333 0
0.233333 0.433333 0
0.266667 0.433333 0
0.3 0.433333 0
0.333333 0.433333 0
0.366667 0.433333 0
0.4 0.433333 0
0.433333 0.433333 0
0.466667 0.433333 0
0.5 0.433333 0
0.533333 0.433333 0
0.566667 0.433333 0
0.6 0.433333 0
0.633333 0.433333 0
0.666667 0.433333 0
0.7 0.433333 0
0.733333 0.433333 0
0.766667 0.433333 0
0.8 0.433333 0
0.833333 0.433333 0
0.866667 0.433333 0
0.9 0.433333 0
0.933333 0.433333 0
0.966667 0.433333 0
1 0.433333 0
0 0.466667 0
0.0333333 0.466667 0
0.0666667 0.466667 0
0.1 0.466667 0
0.133333 0.466667 0
0.166667 0.466667 0
0.2 0.466667 0
0.233333 0.466667 0
0.266667 0.466667 0
0.3 0.466667 0
0.333333 0.466667 0
0.366667 0.466667 0
0.4 0.466667 0
0.433333 0.466667 0
0.466667 0.466667 0
0.5 0.466667 0
0.533333 0.466667 0
0.566667 0.466667 0
0.6 0.466667 0
0.633333 0.466667 0
0.666667 0.466667 0
0.7 0.466667 0
0.733333 0.466667 0
0.766667 0.466667 0
0.8 0.466667 0
0.833333 0.466667 0
0.866667 0.466667 0
0.9 0.466667 0
0.933333 0.466667 0
0.966667 0.466667 0
1 0.466667 0
0 0.5 0
0.0333333 0.5 0
0.0666667 0.5 0
0.1 0.5 0
0.133333 0.5 0
0.166667 0.5 0
0.2 0.5 0
0.233333 0.5 0
0.266667 0.5 0
0.3 0.5 0
0.333333 0.5 0
0.366667 0.5 0
0.4 0.5 0
0.433333 0.5 0
0.466667 0.5 0
0.5 0.5 0
0.533333 0.5 0
0.566667 0.5 0
0.6 0.5 0
0.633333 0.5 0
0.666667 0.5 0
0.7 0.5 0
0.733333 0.5 0
0.766667 0.5 0
0.8 0.5 0
0.833333 0.5 0
0.866667 0.5 0
0.9 0.5 0
0.933333 0.5 0
0.966667 0.5 0
1 0.5 0
0 0.533333 0
0.0333333 0.533333 0
0.0666667 0.533333 0
0.1 0.533333 0
0.133333 0.533333 0
0.166667 0.533333 0
0.2 0.533333 0
0.233333 0.533333 0
0.266667 0.533333 0
0.3 0.533333 0
0.333333 0.533333 0
0.366667 0.533333 0
0.4 0.533333 0
0.433333 0.533333 0
0.466667 0.533333 0
0.5 0.533333 0
0.533333 0.533333 0
0.566667 0.533333 0
0.6 0.533333 0
0.633333 0.533333 0
0.666667 0.533333 0
0.7 0.533333 0
0.733333 0.533333 0
0.766667 0.533333 0
0.8 0.533333 0
0.833333 0.533333 0
0.866667 0.533333 0
0.9 0.533333 0
0.933333 0.533333 0
0.966667 0.533333 0
1 0.533333 0
0 0.566667 0
0.0333333 0.566667 0
0.0666667 0.566667 0
0.1 0.566667 0
0.133333 0.566667 0
0.166667 0.566667 0
0.2 0.566667 0
0.233333 0.566667 0
0.266667 0.566667 0
0.3 0.566667 0
0.333333 0.566667 0
0.366667 0.566667 0
0.4 0.566667 0
0.433333 0.566667 0
0.466667 0.566667 0
0.5 0.566667 0
0.533333 0.566667 0
0.566667 0.566667 0
0.6 0.566667 0
0.633333 0.566667 0
0.666667 0.566667 0
0.7 0.566667 0
0.733333 0.566667 0
0.766667 0.566667 0
0.8 0.566667 0
0.833333 0.566667 0
0.866667 0.566667 0
0.9 0.566667 0
0.933333 0.566667 0
0.966667 0.566667 0
1 0.566667 0
0 0.6 0
0.0333333 0.6 0
0.0666667 0.6 0
0.1 0.6 0
0.133333 0.6 0
0.166667 0.6 0
0.2 0.6 0
0.233333 0.6 0
0.266667 0.6 0
0.3 0.6 0
0.333333 0.6 0
0.366667 0.6 0
0.4 0.6 0
0.433333 0.6 0
0.466667 0.6 0
0.5 0.6 0
0.533333 0.6 0
0.566667 0.6 0
0.6 0.6 0
0.633333 0.6 0
0.666667 0.6 0
0.7 0.6 0
0.733333 0.6 0
0.766667 0.6 0
0.8 0.6 0
0.833333 0.6 0
0.866667 0.6 0
0.9 0.6 0
0.933333 0.6 0
0.966667 0.6 0
1 0.6 0
0 0.633333 0
0.0333333 0.633333 0
0.0666667 0.633333 0
0.1 0.633333 0
0.133333 0.633333 0
0.166667 0.633333 0
0.2 0.633333 0
0.233333 0.633333 0
0.266667 0.633333 0
[...]
    <PointData>
      <DataArray type="Float64" NumberOfComponents="3" Name="Velocity" format="ascii">
0 0 0
0 0 0
0 0 0
0 0 0
0 0 0
0 0 0
0 0 0
0 0 0
0 0 0
0 0 0
0 0 0
0 0 0
0 0 0
0 0 0
0 0 0
0 0 0
0 0 0
0 0 0
0 0 0
0 0 0
0 0 0
0 0 0
0 0 0
0 0 0
0 0 0
0 0 0
0 0 0
0 0 0
0 0 0
0 0 0
0 0 0
0 0 0
-0.000487914 0.000441665 0
-0.00147806 0.000986167 0
-0.00311576 0.00151912 0
-0.00554635 0.00192614 0
-0.0084301 0.0021666 0
-0.0114273 0.00219984 0
-0.0144156 0.00210226 0
-0.0172729 0.00195023 0
-0.0198932 0.00174339 0
-0.0221702 0.00148139 0
-0.024067 0.00118536 0
-0.0255462 0.000876441 0
-0.0265826 0.000555302 0
-0.027151 0.000222605 0
-0.0272443 -0.000115231 0
-0.0268556 -0.000451785 0
-0.0260002 -0.000775957 0
-0.0246936 -0.00107664 0
-0.0229763 -0.0013544 0
-0.0208889 -0.00160978 0
-0.0184824 -0.00181685 0
-0.0158077 -0.00194967 0
-0.0129841 -0.00202176 0
-0.0101312 -0.00204661 0
-0.0073425 -0.00195802 0
-0.00471153 -0.00168978 0
-0.00253982 -0.00128479 0
-0.00112886 -0.000785945 0
-0.000331349 -0.00031657 0
0 0 0
0 0 0
-0.000737963 0.0011377 0
-0.00311542 0.00280622 0
-0.00682153 0.00445979 0
-0.0115454 0.00555268 0
-0.0168728 0.00614901 0
-0.0223891 0.00631293 0
-0.0278449 0.00614089 0
-0.0329903 0.00572937 0
-0.0376831 0.0051301 0
-0.0417806 0.00439485 0
-0.0452081 0.00355915 0
-0.0478903 0.00265855 0
-0.0497749 0.0017052 0
-0.0508093 0.000711245 0
-0.0509796 -0.000299741 0
-0.0502722 -0.00130419 0
-0.048712 -0.002275 0
-0.0463238 -0.00318506 0
-0.0431859 -0.00401478 0
-0.0393764 -0.00474457 0
-0.0350055 -0.00534221 0
-0.0301835 -0.00577545 0
-0.0250697 -0.00600437 0
-0.0198237 -0.00598904 0
-0.0146935 -0.00567466 0
-0.00992715 -0.00500644 0
-0.00581703 -0.00392777 0
-0.0026555 -0.00238206 0
-0.000648015 -0.000896929 0
0 0 0
0 0 0
-0.00131361 0.00300088 0
-0.00516264 0.00645903 0
-0.0108115 0.00957897 0
-0.0175245 0.0115652 0
-0.0248824 0.0125952 0
-0.0324658 0.0128462 0
-0.0399337 0.0124684 0
-0.0469452 0.0116122 0
-0.0533393 0.0103908 0
-0.058955 0.00891781 0
-0.0636738 0.00724355 0
-0.0673769 0.0054184 0
-0.069988 0.00347671 0
-0.0714305 0.00145288 0
-0.071683 -0.000605779 0
-0.0707238 -0.00265193 0
-0.0685877 -0.0046319 0
-0.0653099 -0.00649202 0
-0.0609984 -0.00817965 0
-0.0557615 -0.00964217 0
-0.0497692 -0.0108375 0
-0.0431917 -0.0117236 0
-0.0362078 -0.0122089 0
-0.0289966 -0.0122017 0
-0.021906 -0.0116271 0
-0.015284 -0.0104103 0
-0.00940083 -0.00842351 0
-0.00452634 -0.0055389 0
-0.00120968 -0.00248743 0
0 0 0
0 0 0
-0.0027783 0.00694395 0
-0.00787026 0.0129435 0
-0.0147798 0.0176336 0
-0.0230107 0.0206494 0
-0.0320132 0.022153 0
-0.0412374 0.0223065 0
-0.0503282 0.0214375 0
-0.0589306 0.0198734 0
-0.0668314 0.0177562 0
-0.0738173 0.0152277 0
-0.0797148 0.0123607 0
-0.0843503 0.00922804 0
-0.0876326 0.00589686 0
-0.0894705 0.00243446 0
-0.0898317 -0.00108559 0
-0.0886841 -0.00458971 0
-0.0860798 -0.00798143 0
-0.082071 -0.0111643 0
-0.0767835 -0.0140476 0
-0.0703433 -0.0165404 0
-0.0629733 -0.0185642 0
-0.0548965 -0.0200406 0
-0.0463496 -0.0208965 0
-0.037569 -0.021059 0
-0.0288328 -0.0202927 0
-0.0204194 -0.0183618 0
-0.0128604 -0.0152666 0
-0.00668775 -0.011007 0
-0.00227604 -0.00583441 0
0 0 0
0 0 0
-0.0039045 0.0113784 0
-0.010298 0.0201611 0
-0.0186338 0.0264957 0
-0.0283648 0.03053 0
-0.0388608 0.0324832 0
-0.0494912 0.0325749 0
-0.0599405 0.0312686 0
-0.069893 0.0290279 0
-0.0790788 0.0260061 0
-0.0872276 0.0223564 0
-0.0941338 0.0181905 0
-0.0995917 0.0136201 0
-0.103487 0.00874356 0
-0.105707 0.00365956 0
-0.106199 -0.00151948 0
-0.104915 -0.00668111 0
-0.101915 -0.0116773 0
-0.0972634 -0.0163599 0
-0.09111 -0.0205952 0
-0.0836057 -0.0242493 0
-0.0750133 -0.0271932 0
-0.0655959 -0.0292978 0
-0.0556653 -0.0305265 0
-0.0455334 -0.0308427 0
-0.0354025 -0.0298971 0
-0.0254747 -0.0273403 0
-0.0163982 -0.0231539 0
-0.00882135 -0.0173196 0
-0.00320245 -0.00966061 0
0 0 0
0 0 0
-0.00346468 0.0147158 0
-0.0115058 0.0260135 0
-0.0222809 0.0340372 0
-0.0339474 0.0389316 0
-0.0460203 0.0412466 0
-0.0580144 0.0415322 0
-0.0696829 0.0401823 0
-0.080779 0.0375905 0
-0.0910007 0.0339205 0
-0.100046 0.0293359 0
-0.107733 0.0240127 0
-0.113882 0.018127 0
-0.118331 0.0117947 0
-0.120917 0.00513175 0
-0.121559 -0.00168775 0
-0.120176 -0.00848973 0
-0.116821 -0.0150731 0
-0.111544 -0.0212368 0
-0.104547 -0.0267993 0
-0.0960325 -0.0315791 0
-0.0862846 -0.0353952 0
-0.0755874 -0.0380668 0
-0.0643252 -0.0395584 0
-0.0528825 -0.0398344 0
-0.0415432 -0.0386663 0
-0.0305913 -0.0358251 0
-0.0202166 -0.0307825 0
-0.0106087 -0.02301 0
-0.00334429 -0.0126887 0
0 0 0
0 0 0
-0.00312716 0.0206938 0
-0.0122852 0.0355278 0
-0.0247532 0.0453723 0
-0.0378104 0.0510978 0
-0.0511871 0.0536265 0
-0.0646136 0.0538807 0
-0.0777342 0.0521861 0
-0.0901932 0.0488682 0
-0.101676 0.044155 0
-0.11187 0.0382745 0
-0.120584 0.0314337 0
-0.127625 0.0238393 0
-0.132788 0.015628 0
-0.135866 0.00693611 0
-0.13675 -0.0019997 0
-0.135336 -0.0109428 0
-0.131661 -0.0196126 0
-0.125768 -0.0277287 0
-0.117888 -0.0350462 0
-0.108254 -0.0413205 0
-0.0971891 -0.0463212 0
-0.085013 -0.0498183 0
-0.0721734 -0.0517194 0
-0.0591173 -0.0519322 0
-0.0463564 -0.0504122 0
-0.0344021 -0.0471148 0
-0.0229907 -0.0411981 0
-0.0118582 -0.0318202 0
-0.00339715 -0.0183109 0
0 0 0
0 0 0
-0.00456026 0.0330501 0
-0.0134278 0.0537314 0
-0.0250828 0.065615 0
-0.0380056 0.0722719 0
-0.0520564 0.0748063 0
-0.0670955 0.0743225 0
-0.0822733 0.0712873 0
-0.0967399 0.0661678 0
-0.110185 0.0593652 0
-0.1223 0.0512807 0
-0.132755 0.0420596 0
-0.141224 0.0318475 0
-0.147485 0.0208212 0
-0.151317 0.00915775 0
-0.152611 -0.00286463 0
-0.151257 -0.0149676 0
-0.147302 -0.0267396 0
-0.140792 -0.0377694 0
-0.131926 -0.0477225 0
-0.120902 -0.0562643 0
-0.108129 -0.063122 0
-0.0940146 -0.0680227 0
-0.0790536 -0.0707366 0
-0.063739 -0.0710339 0
-0.0489435 -0.0689469 0
-0.0355398 -0.0645079 0
-0.0233955 -0.0574467 0
-0.0123781 -0.0474927 0
-0.00405663 -0.0299194 0
0 0 0
0 0 0
-0.00530516 0.0425173 0
-0.0131665 0.0680331 0
-0.0235077 0.0820879 0
-0.0362523 0.0902224 0
-0.0509865 0.0934419 0
-0.0672967 0.0927517 0
-0.0840445 0.0888416 0
-0.100092 0.0824013 0
-0.115108 0.073945 0
-0.128764 0.0639869 0
-0.14062 0.0526354 0
-0.150238 0.0399993 0
-0.157399 0.0263199 0
-0.161885 0.0118389 0
-0.163587 -0.00311956 0
-0.1624 -0.0182315 0
-0.158364 -0.0329784 0
-0.151519 -0.046842 0
-0.142021 -0.0593807 0
-0.130022 -0.0701528 0
-0.115983 -0.078825 0
-0.100366 -0.0850638 0
-0.0837082 -0.0885059 0
-0.0665485 -0.0887881 0
-0.0499858 -0.0859048 0
-0.0351188 -0.0798502 0
-0.0223127 -0.0711101 0
-0.0119329 -0.0601703 0
-0.00436632 -0.0391079 0
0 0 0
0 0 0
-0.00290304 0.0398283 0
-0.00973433 0.0658417 0
-0.0202659 0.0821137 0
-0.0342698 0.0927176 0
-0.0503357 0.0981888 0
-0.0670536 0.0990627 0
-0.0837924 0.0962048 0
-0.0999208 0.0904806 0
-0.115026 0.0822882 0
-0.128694 0.0720257 0
-0.140554 0.0599061 0
-0.150231 0.0461425 0
-0.157512 0.0310696 0
-0.16218 0.015022 0
-0.164121 -0.00160149 0
-0.163221 -0.018402 0
-0.159468 -0.0348534 0
-0.152851 -0.0504295 0
-0.143529 -0.0645734 0
-0.131659 -0.0767284 0
-0.117633 -0.0864578 0
-0.101841 -0.0933253 0
-0.0848796 -0.0969231 0
-0.0673471 -0.0968435 0
-0.0501646 -0.0929202 0
-0.0342532 -0.0849872 0
-0.0206238 -0.0737704 0
-0.0102868 -0.059996 0
-0.00336979 -0.0374703 0
0 0 0
0 0 0
-0.00110538 0.0334781 0
-0.00762065 0.0586961 0
-0.0187696 0.0771779 0
-0.033776 0.0904475 0
-0.0505508 0.098569 0
-0.0670049 0.101607 0
-0.083047 0.10047 0
-0.0985859 0.0960702 0
-0.113125 0.0886746 0
-0.126167 0.0785518 0
-0.137448 0.0660759 0
-0.146706 0.0516212 0
-0.153736 0.0356097 0
-0.158335 0.0184637 0
-0.160389 0.000656053 0
-0.159781 -0.0173406 0
-0.156463 -0.0350254 0
-0.150387 -0.0518975 0
-0.141702 -0.0673187 0
-0.130561 -0.0806506 0
-0.117241 -0.0913221 0
-0.102023 -0.0987623 0
-0.0855256 -0.102525 0
-0.0683656 -0.102163 0
-0.0512068 -0.0973283 0
-0.0347127 -0.0876711 0
-0.0203616 -0.0737986 0
-0.00963229 -0.0563178 0
-0.00276497 -0.0325958 0
0 0 0
0 0 0
-0.00366367 0.0319615 0
-0.011315 0.0581348 0
-0.0224311 0.0787662 0
-0.0364891 0.0941022 0
-0.0520785 0.104104 0
-0.067789 0.108734 0
-0.0833386 0.108731 0
-0.0984456 0.104835 0
-0.112591 0.097384 0
-0.125257 0.0867199 0
-0.136197 0.0733493 0
-0.145165 0.0577791 0
-0.151985 0.0404796 0
-0.156481 0.021921 0
-0.158562 0.00261956 0
-0.158137 -0.0169085 0
-0.155195 -0.036155 0
-0.149724 -0.0546117 0
-0.141794 -0.0716344 0
-0.131472 -0.0865791 0
-0.11897 -0.0987195 0
-0.104499 -0.107329 0
-0.0886042 -0.111847 0
-0.0718351 -0.11171 0
-0.0548397 -0.106464 0
-0.0382665 -0.0956541 0
-0.0235593 -0.0795655 0
-0.0121616 -0.0584837 0
-0.00424979 -0.0320736 0
0 0 0
0 0 0
-0.00678624 0.0346846 0
-0.0159004 0.0637137 0
-0.02713 0.0869166 0
-0.0402628 0.104123 0
-0.0547756 0.115435 0
-0.0701455 0.120959 0
-0.085697 0.121296 0
-0.100755 0.117047 0
-0.114814 0.108727 0
-0.12737 0.0968484 0
-0.138185 0.0820179 0
-0.147021 0.0648422 0
-0.153737 0.0458179 0
-0.158193 0.0254415 0
-0.160328 0.00424011 0
-0.160082 -0.0172591 0
-0.157482 -0.0385218 0
-0.152555 -0.059014 0
-0.145274 -0.0780935 0
-0.135611 -0.0951181 0
-0.123709 -0.109224 0
-0.10971 -0.119549 0
-0.0940721 -0.125362 0
-0.0772541 -0.125935 0
-0.0599984 -0.12068 0
-0.0430471 -0.109011 0
-0.0276981 -0.0908721 0
-0.0152493 -0.0662049 0
-0.00593754 -0.0356881 0
0 0 0
0 0 0
-0.00668144 0.0410531 0
-0.0164597 0.0749886 0
-0.0287458 0.101667 0
-0.0429509 0.12095 0
-0.058499 0.133203 0
-0.0748138 0.138793 0
-0.0911517 0.13847 0
-0.106769 0.132982 0
-0.121183 0.123015 0
-0.133913 0.109256 0
-0.1448 0.0923736 0
-0.153685 0.0730365 0
-0.160467 0.0517633 0
-0.165045 0.0290729 0
-0.167373 0.00546875 0
-0.167406 -0.0185453 0
-0.165139 -0.0424051 0
-0.160568 -0.0655463 0
-0.153612 -0.0872687 0
-0.144194 -0.106872 0
-0.132346 -0.123411 0
-0.118102 -0.135943 0
-0.101886 -0.143542 0
-0.0841213 -0.145287 0
-0.065618 -0.140328 0
-0.0471866 -0.127819 0
-0.0302596 -0.107519 0
-0.0162697 -0.0791924 0
-0.00594151 -0.043224 0
0 0 0
0 0 0
-0.00550833 0.0487007 0
-0.0156752 0.0883112 0
-0.0293123 0.118818 0
-0.0452314 0.140206 0
-0.0624488 0.153178 0
-0.0799809 0.158437 0
-0.0971399 0.156998 0
-0.113238 0.149878 0
-0.127864 0.137946 0
-0.140605 0.122072 0
-0.1514 0.102969 0
-0.160186 0.0813481 0
-0.166919 0.0577449 0
-0.171556 0.0326939 0
-0.174065 0.00665942 0
-0.174413 -0.0198943 0
-0.172541 -0.0463958 0
-0.168387 -0.0722739 0
-0.161823 -0.0967662 0
-0.152723 -0.119111 0
-0.141004 -0.138304 0
-0.126589 -0.153345 0
-0.109838 -0.163074 0
-0.0911141 -0.166336 0
-0.0712735 -0.161956 0
-0.0511729 -0.148759 0
-0.0324647 -0.126294 0
-0.0168014 -0.0941083 0
-0.00553061 -0.0520583 0
0 0 0
0 0 0
-0.00542596 0.0552607 0
-0.0162291 0.100033 0
-0.0308631 0.134168 0
-0.0477819 0.157514 0
-0.0658254 0.171134 0
-0.0838333 0.176088 0
-0.101099 0.173621 0
-0.116915 0.164974 0
-0.131024 0.151219 0
-0.143168 0.133427 0
-0.153345 0.112356 0
-0.161552 0.0887631 0
-0.167836 0.0631917 0
-0.172244 0.0361835 0
-0.17477 0.00816607 0
-0.175406 -0.0204329 0
-0.174059 -0.049085 0
-0.170635 -0.0772619 0
-0.16492 -0.104192 0
-0.156699 -0.129104 0
-0.145808 -0.150927 0
-0.132084 -0.168589 0
-0.11572 -0.180646 0
-0.09691 -0.185653 0
-0.0765394 -0.18211 0
-0.0554935 -0.168517 0
-0.0355341 -0.143983 0
-0.018423 -0.107614 0
-0.00597377 -0.0595681 0
0 0 0
0 0 0
-0.00586875 0.0620624 0
-0.0174358 0.111921 0
-0.0328901 0.149439 0
-0.0504208 0.174478 0
-0.0687401 0.188461 0
-0.0865605 0.192811 0
-0.103213 0.189065 0
-0.118028 0.178762 0
-0.130918 0.163151 0
-0.141797 0.143483 0
-0.150751 0.120575 0
-0.157867 0.0952438 0
-0.163293 0.0680138 0
-0.167176 0.03941 0
-0.169546 0.00981112 0
-0.170433 -0.0204042 0
-0.169724 -0.0507859 0
-0.167303 -0.0808842 0
-0.162867 -0.109972 0
-0.156112 -0.137322 0
-0.146759 -0.161787 0
-0.134532 -0.182219 0
-0.119415 -0.196902 0
-0.101391 -0.204122 0
-0.0812629 -0.201944 0
-0.0598336 -0.188432 0
-0.038972 -0.162151 0
-0.0205472 -0.121666 0
-0.00680711 -0.0674563 0
0 0 0
0 0 0
-0.00627108 0.0704353 0
-0.0186097 0.125741 0
-0.034885 0.166351 0
-0.0529661 0.192701 0
-0.0713046 0.206553 0
-0.088352 0.209668 0
-0.103666 0.204057 0
-0.116806 0.19173 0
-0.127802 0.174056 0
-0.136686 0.152402 0
-0.143733 0.127668 0
-0.149216 0.100752 0
-0.153367 0.0721214 0
-0.156417 0.0422421 0
-0.158448 0.011417 0
-0.159542 -0.0200512 0
-0.159564 -0.051812 0
-0.158382 -0.0835145 0
-0.155631 -0.114531 0
-0.150952 -0.144233 0
-0.143861 -0.171391 0
-0.13388 -0.194774 0
-0.120805 -0.212486 0
-0.104438 -0.222629 0
-0.0852912 -0.222611 0
-0.0638784 -0.209843 0
-0.0422825 -0.182365 0
-0.0225864 -0.13822 0
-0.00756675 -0.0774257 0
0 0 0
0 0 0
-0.00670321 0.0797832 0
-0.0199451 0.140763 0
-0.0370133 0.184138 0
-0.0551953 0.211104 0
-0.0728484 0.224023 0
-0.0883294 0.225254 0
-0.101436 0.217282 0
-0.111964 0.202589 0
-0.120145 0.182693 0
-0.126208 0.159108 0
-0.13063 0.132768 0
-0.133884 0.104606 0
-0.13629 0.075008 0
-0.138167 0.0443614 0
-0.139648 0.0128652 0
-0.14087 -0.0192817 0
-0.141693 -0.0518534 0
-0.141979 -0.0846239 0
-0.141321 -0.117098 0
-0.139315 -0.148779 0
-0.135272 -0.178437 0
-0.128507 -0.20484 0
-0.118535 -0.225905 0
-0.104875 -0.239546 0
-0.0877046 -0.242497 0
-0.0672004 -0.23149 0
-0.0454794 -0.203739 0
-0.0246582 -0.156456 0
-0.00830795 -0.0888183 0
0 0 0
0 0 0
-0.0072354 0.0895099 0
-0.0216363 0.15626 0
-0.0394406 0.202032 0
-0.056886 0.228609 0
-0.072701 0.239489 0
-0.0856143 0.238167 0
-0.0954966 0.227426 0
-0.102218 0.210048 0
-0.106418 0.187818 0
-0.108735 0.162523 0
-0.109777 0.135009 0
-0.110155 0.106122 0
-0.110295 0.0761668 0
-0.110623 0.0454497 0
-0.111318 0.0140374 0
-0.112555 -0.0180031 0
-0.114222 -0.0506005 0
-0.116204 -0.0836834 0
-0.118047 -0.116901 0
-0.119298 -0.149902 0
-0.119149 -0.181624 0
-0.116793 -0.211 0
-0.111247 -0.235663 0
-0.101526 -0.253245 0
-0.0875835 -0.259983 0
-0.0693725 -0.252114 0
-0.0485767 -0.225389 0
-0.0268797 -0.175558 0
-0.00908597 -0.100976 0
0 0 0
0 0 0
-0.00812192 0.100261 0
-0.0233522 0.172333 0
-0.0411557 0.219327 0
-0.0569972 0.244353 0
-0.0698772 0.252107 0
-0.0787958 0.247281 0
-0.0839522 0.233129 0
-0.085545 0.212902 0
-0.0846371 0.188519 0
-0.0822912 0.1619 0
-0.0792252 0.133756 0
-0.0761572 0.104801 0
-0.0735988 0.075228 0
-0.0720617 0.045232 0
-0.0717539 0.0147385 0
-0.0728833 -0.0163269 0
-0.0753787 -0.0480568 0
-0.0791687 -0.080544 0
-0.083786 -0.113617 0
-0.0887636 -0.147106 0
-0.0932334 -0.180189 0
-0.0963275 -0.212047 0
-0.0965747 -0.240234 0
-0.0925039 -0.262302 0
-0.0835341 -0.273844 0
-0.0690845 -0.270451 0
-0.050437 -0.246245 0
-0.0288734 -0.195348 0
-0.0101443 -0.11439 0
0 0 0
0 0 0
-0.00961708 0.112684 0
-0.0247615 0.189086 0
-0.0411472 0.235313 0
-0.0544882 0.257474 0
-0.0633912 0.261037 0
-0.066463 0.251472 0
-0.0649055 0.233027 0
-0.0599209 0.209948 0
-0.0528174 0.183886 0
-0.0449033 0.156492 0
-0.037022 0.128374 0
-0.0300171 0.100143 0
-0.0244184 0.0718219 0
-0.0207558 0.0434337 0
-0.0192547 0.0147733 0
-0.0201401 -0.0143642 0
-0.0233904 -0.0442253 0
-0.0289839 -0.0750568 0
-0.0365142 -0.106924 0
-0.0455747 -0.139891 0
-0.0552681 -0.173371 0
-0.0646966 -0.206775 0
-0.0721511 -0.238088 0
-0.0759221 -0.265295 0
-0.0741628 -0.282857 0
-0.0650264 -0.285237 0
-0.0499226 -0.265235 0
-0.0302617 -0.215651 0
-0.0117264 -0.12955 0
0 0 0
0 0 0
-0.0105545 0.125456 0
-0.0254617 0.205087 0
-0.0396524 0.248574 0
-0.0480577 0.265597 0
-0.0499891 0.263118 0
-0.0447583 0.248103 0
-0.0345817 0.225436 0
-0.0216762 0.200004 0
-0.00748116 0.173029 0
0.00656394 0.145733 0
0.019577 0.118571 0
0.030676 0.091997 0
0.0393841 0.0658518 0
0.0452248 0.0399777 0
0.0479814 0.0140596 0
0.0474376 -0.0122177 0
0.0435626 -0.0392263 0
0.0363259 -0.0673382 0
0.0260075 -0.0968522 0
0.0128872 -0.128067 0
-0.0022174 -0.16067 0
-0.018489 -0.194345 0
-0.0341921 -0.227736 0
-0.0475912 -0.259483 0
-0.0556431 -0.283451 0
-0.0553045 -0.293506 0
-0.046814 -0.280342 0
-0.0304102 -0.234656 0
-0.0126274 -0.145018 0
0 0 0
0 0 0
-0.0097678 0.137256 0
-0.0250501 0.218908 0
-0.0369084 0.257692 0
-0.0364045 0.266349 0
-0.026417 0.255191 0
-0.00982438 0.234535 0
0.010794 0.20867 0
0.0328588 0.181886 0
0.0548495 0.155057 0
0.0752456 0.12906 0
0.0933167 0.104056 0
0.108333 0.0802103 0
0.119947 0.0572208 0
0.127811 0.0347872 0
0.131756 0.0125151 0
0.131613 -0.00999019 0
0.1273 -0.0331798 0
0.118737 -0.0575048 0
0.106018 -0.0834359 0
0.089241 -0.111444 0
0.0689539 -0.141586 0
0.0457071 -0.17392 0
0.0210866 -0.207687 0
-0.0033214 -0.242129 0
-0.0241483 -0.272058 0
-0.0380255 -0.29229 0
-0.0408915 -0.289548 0
-0.0286848 -0.250554 0
-0.0116421 -0.159355 0
0 0 0
0 0 0
-0.0090568 0.150745 0
-0.0199288 0.229245 0
-0.0229062 0.256712 0
-0.00827937 0.254361 0
0.0172633 0.234497 0
0.0470333 0.209425 0
0.0786458 0.182156 0
0.109716 0.155701 0
0.13888 0.130568 0
0.164774 0.107265 0
0.186976 0.0856312 0
0.205059 0.0655073 0
0.218867 0.0465057 0
0.22824 0.0282394 0
0.233086 0.0102818 0
0.233309 -0.00779337 0
0.228788 -0.0264604 0
0.219402 -0.0461934 0
0.205045 -0.0675446 0
0.185611 -0.0910662 0
0.161253 -0.117181 0
0.132125 -0.14631 0
0.0994034 -0.178239 0
0.0642669 -0.212751 0
0.0295843 -0.246478 0
-0.0017747 -0.276055 0
-0.0213651 -0.286005 0
-0.0207416 -0.260851 0
-0.010191 -0.174286 0
0 0 0
0 0 0
-0.0102213 0.168584 0
-0.00649981 0.234796 0
0.0123634 0.239677 0
0.0475671 0.224264 0
0.0909896 0.198275 0
0.134509 0.171426 0
0.176398 0.145318 0
0.214927 0.121555 0
0.249315 0.100156 0
0.278783 0.0811417 0
0.303332 0.0640984 0
0.32296 0.0486125 0
0.337743 0.0342836 0
0.347752 0.0207114 0
0.352988 0.00750187 0
0.353449 -0.00573904 0
0.348993 -0.0194427 0
0.339476 -0.0340405 0
0.324614 -0.0500481 0
0.304121 -0.0679811 0
0.277686 -0.0885154 0
0.244996 -0.112327 0
0.206477 -0.139688 0
0.162553 -0.170869 0
0.114818 -0.204514 0
0.0648626 -0.239264 0
0.0225553 -0.262863 0
-0.00223684 -0.263055 0
-0.00969485 -0.191535 0
0 0 0
0 0 0
0.0118817 0.164934 0
0.0465152 0.213268 0
0.0961908 0.198798 0
0.153199 0.175318 0
0.211416 0.148506 0
0.264716 0.124038 0
0.312508 0.102258 0
0.354198 0.0835135 0
0.389847 0.0674792 0
0.419513 0.05383 0
0.443611 0.0420325 0
0.462557 0.0315532 0
0.476625 0.0220536 0
0.486088 0.0131953 0
0.491031 0.00466725 0
0.491537 -0.00384166 0
0.487459 -0.0126687 0
0.478652 -0.0221511 0
0.464718 -0.0326815 0
0.445258 -0.0446525 0
0.419577 -0.0588148 0
0.386977 -0.0759194 0
0.346984 -0.0964978 0
0.299123 -0.121082 0
0.243326 -0.149935 0
0.179525 -0.183322 0
0.114864 -0.214106 0
0.0564887 -0.235152 0
0.0147505 -0.184452 0
0 0 0
2.77334e-30 0 0
0.0823955 0.113961 0
0.170395 0.142366 0
0.255867 0.126284 0
0.330681 0.106783 0
0.395195 0.087172 0
0.449766 0.0707597 0
0.495433 0.0570734 0
0.533238 0.0456405 0
0.564165 0.0361946 0
0.589202 0.028469 0
0.60904 0.0220082 0
0.624369 0.0163567 0
0.635562 0.0113149 0
0.642992 0.00668309 0
0.646786 0.00227001 0
0.647075 -0.00211568 0
0.643731 -0.0066802 0
0.636626 -0.0116297 0
0.625353 -0.0171795 0
0.609509 -0.0235446 0
0.588246 -0.0313038 0
0.56072 -0.0410357 0
0.525602 -0.0531325 0
0.481562 -0.0679863 0
0.426885 -0.086514 0
0.35985 -0.109633 0
0.279555 -0.133714 0
0.185094 -0.155127 0
0.0880488 -0.126385 0
2.77334e-30 0 0
0.25 0 0
0.359156 0.0481532 0
0.457452 0.0589798 0
0.5407 0.0505471 0
0.604714 0.0409219 0
0.654124 0.0318203 0
0.69356 0.0249583 0
0.724741 0.0196817 0
0.74939 0.015336 0
0.76873 0.0118517 0
0.783987 0.0091589 0
0.795782 0.00700443 0
0.804737 0.00513503 0
0.811155 0.00348964 0
0.815337 0.00200719 0
0.817395 0.000613239 0
0.817439 -0.000766626 0
0.815386 -0.0022123 0
0.811155 -0.00380366 0
0.804465 -0.00559978 0
0.795035 -0.0076597 0
0.782215 -0.0102697 0
0.765353 -0.0137159 0
0.743038 -0.0181229 0
0.713859 -0.0236151 0
0.675705 -0.0309645 0
0.626466 -0.0409435 0
0.560107 -0.0521802 0
0.470593 -0.0633026 0
0.364899 -0.0530096 0
0.25 0 0
1 0 0
1 0 0
1 0 0
1 0 0
1 0 0
1 0 0
1 0 0
1 0 0
1 0 0
1 0 0
1 0 0
1 0 0
1 0 0
1 0 0
1 0 0
1 0 0
1 0 0
1 0 0
1 0 0
1 0 0
1 0 0
1 0 0
1 0 0
1 0 0
1 0 0
1 0 0
1 0 0
1 0 0
1 0 0
1 0 0
1 0 0
      </DataArray> 
      <DataArray type="Float64" NumberOfComponents="3" Name="Real Velocity" format="ascii">
0 0 0
0 0 0
0 0 0
0 0 0
0 0 0
0 0 0
0 0 0
0 0 0