<?xml version="1.0"?>
<VTKFile type="UnstructuredGrid">
  <UnstructuredGrid>
  <Piece NumberOfPoints="961"  NumberOfCells="225">
    <Points>
      <DataArray type="Float64" NumberOfComponents="3" format="ascii">
0 0 0
0.0333333 0 0
0.0666667 0 0
0.1 0 0
0.133333 0 0
0.166667 0 0
0.2 0 0
0.233333 0 0
0.266667 0 0
0.3 0 0
0.333333 0 0
0.366667 0 0
0.4 0 0
0.433333 0 0
0.466667 0 0
0.5 0 0
0.533333 0 0
0.566667 0 0
0.6 0 0
0.633333 0 0
0.666667 0 0
0.7 0 0
0.733333 0 0
0.766667 0 0
0.8 0 0
0.833333 0 0
0.866667 0 0
0.9 0 0
0.933333 0 0
0.966667 0 0
1 0 0
0 0.0333333 0
0.0333333 0.0333333 0
0.0666667 0.0333333 0
0.1 0.0333333 0
0.133333 0.0333333 0
0.166667 0.0333333 0
0.2 0.0333333 0
0.233333 0.0333333 0
0.266667 0.0333333 0
0.3 0.0333333 0
0.333333 0.0333333 0
0.366667 0.0333333 0
0.4 0.0333333 0
0.433333 0.0333333 0
0.466667 0.0333333 0
0.5 0.0333333 0
0.533333 0.0333333 0
0.566667 0.0333333 0
0.6 0.0333333 0
0.633333 0.0333333 0
0.666667 0.0333333 0
0.7 0.0333333 0
0.733333 0.0333333 0
0.766667 0.0333333 0
0.8 0.0333333 0
0.833333 0.0333333 0
0.866667 0.0333333 0
0.9 0.0333333 0
0.933333 0.0333333 0
0.966667 0.0333333 0
1 0.0333333 0
0 0.0666667 0
0.0333333 0.0666667 0
0.0666667 0.0666667 0
0.1 0.0666667 0
0.133333 0.0666667 0
0.166667 0.0666667 0
0.2 0.0666667 0
0.233333 0.0666667 0
0.266667 0.0666667 0
0.3 0.0666667 0
0.333333 0.0666667 0
0.366667 0.0666667 0
0.4 0.0666667 0
0.433333 0.0666667 0
0.466667 0.0666667 0
0.5 0.0666667 0
0.533333 0.0666667 0
0.566667 0.0666667 0
0.6 0.0666667 0
0.633333 0.0666667 0
0.666667 0.0666667 0
0.7 0.0666667 0
0.733333 0.0666667 0
0.766667 0.0666667 0
0.8 0.0666667 0
0.833333 0.0666667 0
0.866667 0.0666667 0
0.9 0.0666667 0
0.933333 0.0666667 0
0.966667 0.0666667 0
1 0.0666667 0
0 0.1 0
0.0333333 0.1 0
0.0666667 0.1 0
0.1 0.1 0
0.133333 0.1 0
0.166667 0.1 0
0.2 0.1 0
0.233333 0.1 0
0.266667 0.1 0
0.3 0.1 0
0.333333 0.1 0
0.366667 0.1 0
0.4 0.1 0
0.433333 0.1 0
0.466667 0.1 0
0.5 0.1 0
0.533333 0.1 0
0.566667 0.1 0
0.6 0.1 0
0.633333 0.1 0
0.666667 0.1 0
0.7 0.1 0
0.733333 0.1 0
0.766667 0.1 0
0.8 0.1 0
0.833333 0.1 0
0.866667 0.1 0
0.9 0.1 0
0.933333 0.1 0
0.966667 0.1 0
1 0.1 0
0 0.133333 0
0.0333333 0.133333 0
0.0666667 0.133333 0
0.1 0.133333 0
0.133333 0.133333 0
0.166667 0.133333 0
0.2 0.133333 0
0.233333 0.133333 0
0.266667 0.133333 0
0.3 0.133333 0
0.333333 0.133333 0
0.366667 0.133333 0
0.4 0.133333 0
0.433333 0.133333 0
0.466667 0.133333 0
0.5 0.133333 0
0.533333 0.133333 0
0.566667 0.133333 0
0.6 0.133333 0
0.633333 0.133333 0
0.666667 0.133333 0
0.7 0.133333 0
0.733333 0.133333 0
0.766667 0.133333 0
0.8 0.133333 0
0.833333 0.133333 0
0.866667 0.133333 0
0.9 0.133333 0
0.933333 0.133333 0
0.966667 0.133333 0
1 0.133333 0
0 0.166667 0
0.0333333 0.166667 0
0.0666667 0.166667 0
0.1 0.166667 0
0.133333 0.166667 0
0.166667 0.166667 0
0.2 0.166667 0
0.233333 0.166667 0
0.266667 0.166667 0
0.3 0.166667 0
0.333333 0.166667 0
0.366667 0.166667 0
0.4 0.166667 0
0.433333 0.166667 0
0.466667 0.166667 0
0.5 0.166667 0
0.533333 0.166667 0
0.566667 0.166667 0
0.6 0.166667 0
0.633333 0.166667 0
0.666667 0.166667 0
0.7 0.166667 0
0.733333 0.166667 0
0.766667 0.166667 0
0.8 0.166667 0
0.833333 0.166667 0
0.866667 0.166667 0
0.9 0.166667 0
0.933333 0.166667 0
0.966667 0.166667 0
1 0.166667 0
0 0.2 0
0.0333333 0.2 0
0.0666667 0.2 0
0.1 0.2 0
0.133333 0.2 0
0.166667 0.2 0
0.2 0.2 0
0.233333 0.2 0
0.266667 0.2 0
0.3 0.2 0
0.333333 0.2 0
0.366667 0.2 0
0.4 0.2 0
0.433333 0.2 0
0.466667 0.2 0
0.5 0.2 0
0.533333 0.2 0
0.566667 0.2 0
0.6 0.2 0
0.633333 0.2 0
0.666667 0.2 0
0.7 0.2 0
0.733333 0.2 0
0.766667 0.2 0
0.8 0.2 0
0.833333 0.2 0
0.866667 0.2 0
0.9 0.2 0
0.933333 0.2 0
0.966667 0.2 0
1 0.2 0
0 0.233333 0
0.0333333 0.233333 0
0.0666667 0.233333 0
0.1 0.233333 0
0.133333 0.233333 0
0.166667 0.233333 0
0.2 0.233333 0
0.233333 0.233333 0
0.266667 0.233333 0
0.3 0.233333 0
0.333333 0.233333 0
0.366667 0.233333 0
0.4 0.233333 0
0.433333 0.233333 0
0.466667 0.233333 0
0.5 0.233333 0
0.533333 0.233333 0
0.566667 0.233333 0
0.6 0.233333 0
0.633333 0.233333 0
0.666667 0.233333 0
0.7 0.233333 0
0.733333 0.233333 0
0.766667 0.233333 0
0.8 0.233333 0
0.833333 0.233333 0
0.866667 0.233333 0
0.9 0.233333 0
0.933333 0.233333 0
0.966667 0.233333 0
1 0.233333 0
0 0.266667 0
0.0333333 0.266667 0
0.0666667 0.266667 0
0.1 0.266667 0
0.133333 0.266667 0
0.166667 0.266667 0
0.2 0.266667 0
0.233333 0.266667 0
0.266667 0.266667 0
0.3 0.266667 0
0.333333 0.266667 0
0.366667 0.266667 0
0.4 0.266667 0
0.433333 0.266667 0
0.466667 0.266667 0
0.5 0.266667 0
0.533333 0.266667 0
0.566667 0.266667 0
0.6 0.266667 0
0.633333 0.266667 0
0.666667 0.266667 0
0.7 0.266667 0
0.733333 0.266667 0
0.766667 0.266667 0
0.8 0.266667 0
0.833333 0.266667 0
0.866667 0.266667 0
0.9 0.266667 0
0.933333 0.266667 0
0.966667 0.266667 0
1 0.266667 0
0 0.3 0
0.0333333 0.3 0
0.0666667 0.3 0
0.1 0.3 0
0.133333 0.3 0
0.166667 0.3 0
0.2 0.3 0
0.233333 0.3 0
0.266667 0.3 0
0.3 0.3 0
0.333333 0.3 0
0.366667 0.3 0
0.4 0.3 0
0.433333 0.3 0
0.466667 0.3 0
0.5 0.3 0
0.533333 0.3 0
0.566667 0.3 0
0.6 0.3 0
0.633333 0.3 0
0.666667 0.3 0
0.7 0.3 0
0.733333 0.3 0
0.766667 0.3 0
0.8 0.3 0
0.833333 0.3 0
0.866667 0.3 0
0.9 0.3 0
0.933333 0.3 0
0.966667 0.3 0
1 0.3 0
0 0.333333 0
0.0333333 0.333333 0
0.0666667 0.333333 0
0.1 0.333333 0
0.133333 0.333333 0
0.166667 0.333333 0
0.2 0.333333 0
0.233333 0.333333 0
0.266667 0.333333 0
0.3 0.333333 0
0.333333 0.333333 0
0.366667 0.333333 0
0.4 0.333333 0
0.433333 0.333333 0
0.466667 0.333333 0
0.5 0.333333 0
0.533333 0.333333 0
0.566667 0.333333 0
0.6 0.333333 0
0.633333 0.333333 0
0.666667 0.333333 0
0.7 0.333333 0
0.733333 0.333333 0
0.766667 0.333333 0
0.8 0.333333 0
0.833333 0.333333 0
0.866667 0.333333 0
0.9 0.333333 0
0.933333 0.333333 0
0.966667 0.333333 0
1 0.333333 0
0 0.366667 0
0.0333333 0.366667 0
0.0666667 0.366667 0
0.1 0.366667 0
0.133333 0.366667 0
0.166667 0.366667 0
0.2 0.366667 0
0.233333 0.366667 0
0.266667 0.366667 0
0.3 0.366667 0
0.333333 0.366667 0
0.366667 0.366667 0
0.4 0.366667 0
0.433333 0.366667 0
0.466667 0.366667 0
0.5 0.366667 0
0.533333 0.366667 0
0.566667 0.366667 0
0.6 0.366667 0
0.633333 0.366667 0
0.666667 0.366667 0
0.7 0.366667 0
0.733333 0.366667 0
0.766667 0.366667 0
0.8 0.366667 0
0.833333 0.366667 0
0.866667 0.366667 0
0.9 0.366667 0
0.933333 0.366667 0
0.966667 0.366667 0
1 0.366667 0
0 0.4 0
0.0333333 0.4 0
0.0666667 0.4 0
0.1 0.4 0
0.133333 0.4 0
0.166667 0.4 0
0.2 0.4 0
0.233333 0.4 0
0.266667 0.4 0
0.3 0.4 0
0.333333 0.4 0
0.366667 0.4 0
0.4 0.4 0
0.433333 0.4 0
0.466667 0.4 0
0.5 0.4 0
0.533333 0.4 0
0.566667 0.4 0
0.6 0.4 0
0.633333 0.4 0
0.666667 0.4 0
0.7 0.4 0
0.733333 0.4 0
0.766667 0.4 0
0.8 0.4 0
0.833333 0.4 0
0.866667 0.4 0
0.9 0.4 0
0.933333 0.4 0
0.966667 0.4 0
1 0.4 0
0 0.433333 0
0.0333333 0.433333 0
0.0666667 0.433333 0
0.1 0.433333 0
0.133333 0.433333 0
0.166667 0.433333 0
0.2 0.433333 0
0.233333 0.433333 0
0.266667 0.433333 0
0.3 0.433333 0
0.333333 0.433333 0
0.366667 0.433333 0
0.4 0.433333 0
0.433333 0.433333 0
0.466667 0.433333 0
0.5 0.433333 0
0.533333 0.433333 0
0.566667 0.433333 0
0.6 0.433333 0
0.633333 0.433333 0
0.666667 0.433333 0
0.7 0.433333 0
0.733333 0.433333 0
0.766667 0.433333 0
0.8 0.433333 0
0.833333 0.433333 0
0.866667 0.433333 0
0.9 0.433333 0
0.933333 0.433333 0
0.966667 0.433333 0
1 0.433333 0
0 0.466667 0
0.0333333 0.466667 0
0.0666667 0.466667 0
0.1 0.466667 0
0.133333 0.466667 0
0.166667 0.466667 0
0.2 0.466667 0
0.233333 0.466667 0
0.266667 0.466667 0
0.3 0.466667 0
0.333333 0.466667 0
0.366667 0.466667 0
0.4 0.466667 0
0.433333 0.466667 0
0.466667 0.466667 0
0.5 0.466667 0
0.533333 0.466667 0
0.566667 0.466667 0
0.6 0.466667 0
0.633333 0.466667 0
0.666667 0.466667 0
0.7 0.466667 0
0.733333 0.466667 0
0.766667 0.466667 0
0.8 0.466667 0
0.833333 0.466667 0
0.866667 0.466667 0
0.9 0.466667 0
0.933333 0.466667 0
0.966667 0.466667 0
1 0.466667 0
0 0.5 0
0.0333333 0.5 0
0.0666667 0.5 0
0.1 0.5 0
0.133333 0.5 0
0.166667 0.5 0
0.2 0.5 0
0.233333 0.5 0
0.266667 0.5 0
0.3 0.5 0
0.333333 0.5 0
0.366667 0.5 0
0.4 0.5 0
0.433333 0.5 0
0.466667 0.5 0
0.5 0.5 0
0.533333 0.5 0
0.566667 0.5 0
0.6 0.5 0
0.633333 0.5 0
0.666667 0.5 0
0.7 0.5 0
0.733333 0.5 0
0.766667 0.5 0
0.8 0.5 0
0.833333 0.5 0
0.866667 0.5 0
0.9 0.5 0
0.933333 0.5 0
0.966667 0.5 0
1 0.5 0
0 0.533333 0
0.0333333 0.533333 0
0.0666667 0.533333 0
0.1 0.533333 0
0.133333 0.533333 0
0.166667 0.533333 0
0.2 0.533333 0
0.233333 0.533333 0
0.266667 0.533333 0
0.3 0.533333 0
0.333333 0.533333 0
0.366667 0.533333 0
0.4 0.533333 0
0.433333 0.533333 0
0.466667 0.533333 0
0.5 0.533333 0
0.533333 0.533333 0
0.566667 0.533333 0
0.6 0.533333 0
0.633333 0.533333 0
0.666667 0.533333 0
0.7 0.533333 0
0.733333 0.533333 0
0.766667 0.533333 0
0.8 0.533333 0
0.833333 0.533333 0
0.866667 0.533333 0
0.9 0.533333 0
0.933333 0.533333 0
0.966667 0.533333 0
1 0.533333 0
0 0.566667 0
0.0333333 0.566667 0
0.0666667 0.566667 0
0.1 0.566667 0
0.133333 0.566667 0
0.166667 0.566667 0
0.2 0.566667 0
0.233333 0.566667 0
0.266667 0.566667 0
0.3 0.566667 0
0.333333 0.566667 0
0.366667 0.566667 0
0.4 0.566667 0
0.433333 0.566667 0
0.466667 0.566667 0
0.5 0.566667 0
0.533333 0.566667 0
0.566667 0.566667 0
0.6 0.566667 0
0.633333 0.566667 0
0.666667 0.566667 0
0.7 0.566667 0
0.733333 0.566667 0
0.766667 0.566667 0
0.8 0.566667 0
0.833333 0.566667 0
0.866667 0.566667 0
0.9 0.566667 0
0.933333 0.566667 0
0.966667 0.566667 0
1 0.566667 0
0 0.6 0
0.0333333 0.6 0
0.0666667 0.6 0
0.1 0.6 0
0.133333 0.6 0
0.166667 0.6 0
0.2 0.6 0
0.233333 0.6 0
0.266667 0.6 0
0.3 0.6 0
0.333333 0.6 0
0.366667 0.6 0
0.4 0.6 0
0.433333 0.6 0
0.466667 0.6 0
0.5 0.6 0
0.533333 0.6 0
0.566667 0.6 0
0.6 0.6 0
0.633333 0.6 0
0.666667 0.6 0
0.7 0.6 0
0.733333 0.6 0
0.766667 0.6 0
0.8 0.6 0
0.833333 0.6 0
0.866667 0.6 0
0.9 0.6 0
0.933333 0.6 0
0.966667 0.6 0
1 0.6 0
0 0.633333 0
0.0333333 0.633333 0
0.0666667 0.633333 0
0.1 0.633333 0
0.133333 0.633333 0
0.166667 0.633333 0
0.2 0.633333 0
0.233333 0.633333 0
0.266667 0.633333 0
[...]
    <PointData>
      <DataArray type="Float64" NumberOfComponents="3" Name="Velocity" format="ascii">
0 0 0
0 0 0
0 0 0
0 0 0
0 0 0
0 0 0
0 0 0
0 0 0
0 0 0
0 0 0
0 0 0
0 0 0
0 0 0
0 0 0
0 0 0
0 0 0
0 0 0
0 0 0
0 0 0
0 0 0
0 0 0
0 0 0
0 0 0
0 0 0
0 0 0
0 0 0
0 0 0
0 0 0
0 0 0
0 0 0
0 0 0
0 0 0
0.0193671 -0.022622 0
0.0376825 -0.0147331 0
0.0378597 0.0098114 0
0.00281193 0.0371562 0
-0.0485649 0.0586043 0
-0.097375 0.0654589 0
-0.140752 0.0636704 0
-0.175831 0.0591893 0
-0.203313 0.0526575 0
-0.2239 0.044717 0
-0.238757 0.0360905 0
-0.249051 0.0275005 0
-0.255498 0.0189531 0
-0.258815 0.0104541 0
-0.259224 0.00192801 0
-0.256946 -0.00670085 0
-0.251731 -0.0154952 0
-0.243331 -0.0245179 0
-0.23108 -0.0336103 0
-0.214312 -0.0426139 0
-0.192047 -0.0509628 0
-0.163306 -0.0580911 0
-0.127956 -0.0626401 0
-0.0858655 -0.0632513 0
-0.0400584 -0.0555878 0
0.00644158 -0.0353129 0
0.0371909 -0.0100496 0
0.0357459 0.0125792 0
0.0180383 0.0200902 0
0 0 0
0 0 0
0.00968385 -0.0425758 0
0.000206088 -0.0121665 0
-0.0294701 0.0476896 0
-0.0803816 0.0934541 0
-0.139099 0.12093 0
-0.192192 0.125921 0
-0.23838 0.11791 0
-0.276382 0.106381 0
-0.306518 0.0923478 0
-0.329106 0.0768247 0
-0.345373 0.0607656 0
-0.356546 0.0451247 0
-0.363274 0.0298308 0
-0.366205 0.0148126 0
-0.365602 -0.000136399 0
-0.36173 -0.0152229 0
-0.354374 -0.0305977 0
-0.343319 -0.0464114 0
-0.328009 -0.062579 0
-0.307887 -0.0790156 0
-0.281922 -0.0947603 0
-0.249084 -0.108853 0
-0.209566 -0.119501 0
-0.163559 -0.124913 0
-0.113181 -0.117238 0
-0.0605481 -0.0886229 0
-0.0170294 -0.0441666 0
0.00600728 0.0110334 0
0.0109033 0.038561 0
0 0 0
0 0 0
-0.0166276 -0.0449868 0
-0.0670753 0.0103607 0
-0.129527 0.0983116 0
-0.182168 0.151135 0
-0.226197 0.174332 0
-0.262814 0.173406 0
-0.293438 0.158611 0
-0.31949 0.140201 0
-0.340616 0.119491 0
-0.35646 0.0977997 0
-0.367796 0.076044 0
-0.375396 0.055143 0
-0.379537 0.0349414 0
-0.3805 0.015284 0
-0.378499 -0.00415547 0
-0.373749 -0.0237035 0
-0.366187 -0.0435938 0
-0.355749 -0.0640602 0
-0.342279 -0.0851521 0
-0.325618 -0.106919 0
-0.305162 -0.128202 0
-0.280306 -0.147843 0
-0.251543 -0.163991 0
-0.219364 -0.174799 0
-0.183718 -0.170935 0
-0.144551 -0.14307 0
-0.10054 -0.0891698 0
-0.0503601 -0.00720388 0
-0.0111377 0.0425966 0
0 0 0
0 0 0
-0.0471453 -0.0149804 0
-0.118808 0.0555093 0
-0.18985 0.146354 0
-0.235136 0.192439 0
-0.264457 0.206165 0
-0.287605 0.199937 0
-0.306483 0.181668 0
-0.32299 0.159276 0
-0.336604 0.134509 0
-0.346804 0.109119 0
-0.353976 0.0839445 0
-0.358509 0.0598258 0
-0.360496 0.0365932 0
-0.36003 0.0140768 0
-0.357275 -0.00809143 0
-0.352396 -0.0302798 0
-0.345429 -0.05277 0
-0.336406 -0.075844 0
-0.325379 -0.0995756 0
-0.312398 -0.124039 0
-0.297305 -0.148099 0
-0.279943 -0.17062 0
-0.260599 -0.189522 0
-0.239564 -0.202723 0
-0.21602 -0.202666 0
-0.18915 -0.181792 0
-0.151221 -0.131878 0
-0.0945006 -0.0446992 0
-0.0378173 0.0193812 0
0 0 0
0 0 0
-0.0728956 0.0300803 0
-0.151561 0.109265 0
-0.217639 0.18941 0
-0.252773 0.222374 0
-0.270368 0.224942 0
-0.28383 0.213902 0
-0.29462 0.193811 0
-0.304202 0.169225 0
-0.31217 0.142174 0
-0.31812 0.114689 0
-0.322157 0.0875264 0
-0.324387 0.061445 0
-0.324815 0.0363106 0
-0.323448 0.011989 0
-0.320407 -0.0118781 0
-0.31581 -0.035649 0
-0.30975 -0.0596186 0
-0.302323 -0.0840816 0
-0.293677 -0.109068 0
-0.283964 -0.134606 0
-0.273372 -0.159692 0
-0.262089 -0.183318 0
-0.250041 -0.203292 0
-0.237151 -0.217419 0
-0.222499 -0.221048 0
-0.205165 -0.209528 0
-0.175343 -0.169933 0
-0.123229 -0.089341 0
-0.0607909 -0.0164601 0
0 0 0
0 0 0
-0.0849051 0.0728322 0
-0.161905 0.157612 0
-0.220095 0.225072 0
-0.248569 0.245948 0
-0.260423 0.239175 0
-0.268751 0.223693 0
-0.274957 0.201769 0
-0.280445 0.175668 0
-0.284997 0.147261 0
-0.288392 0.118417 0
-0.290585 0.0898492 0
-0.291528 0.0622723 0
-0.291157 0.0356181 0
-0.289411 0.00981863 0
-0.286373 -0.0154492 0
-0.282126 -0.0405084 0
-0.276802 -0.0656318 0
-0.270533 -0.091092 0
-0.263542 -0.116846 0
-0.256053 -0.142852 0
-0.248381 -0.168223 0
-0.240842 -0.192071 0
-0.233175 -0.212502 0
-0.225117 -0.227622 0
-0.215566 -0.234701 0
-0.203417 -0.231012 0
-0.179178 -0.200978 0
-0.133358 -0.129018 0
-0.0717136 -0.050302 0
0 0 0
0 0 0
-0.0877746 0.109968 0
-0.158606 0.198501 0
-0.208055 0.253831 0
-0.231686 0.264193 0
-0.240751 0.249651 0
-0.246501 0.230268 0
-0.250328 0.206684 0
-0.253624 0.179538 0
-0.256314 0.150359 0
-0.258326 0.120672 0
-0.259556 0.0911475 0
-0.259903 0.0624536 0
-0.259254 0.0346028 0
-0.257497 0.00760757 0
-0.254688 -0.0188029 0
-0.250885 -0.0448991 0
-0.246238 -0.0709074 0
-0.240895 -0.0970539 0
-0.235122 -0.123222 0
-0.229181 -0.149295 0
-0.22339 -0.174501 0
-0.218064 -0.198069 0
-0.21289 -0.218563 0
-0.207555 -0.234546 0
-0.200903 -0.244628 0
-0.19178 -0.247419 0
-0.171862 -0.225718 0
-0.132825 -0.162326 0
-0.0753209 -0.0796255 0
0 0 0
0 0 0
-0.0861051 0.138182 0
-0.150427 0.22988 0
-0.192358 0.276173 0
-0.211287 0.278141 0
-0.217483 0.257154 0
-0.221213 0.234583 0
-0.223568 0.209698 0
-0.22564 0.181769 0
-0.227351 0.152058 0
-0.228626 0.121825 0
-0.229368 0.0916556 0
-0.229484 0.0621346 0
-0.228836 0.033352 0
-0.227285 0.0053977 0
-0.22487 -0.0219373 0
-0.221627 -0.0488621 0
-0.21771 -0.0755429 0
-0.213268 -0.102146 0
-0.208566 -0.128505 0
-0.203866 -0.154451 0
-0.199455 -0.179334 0
-0.19562 -0.202501 0
-0.19208 -0.222883 0
-0.188557 -0.23941 0
-0.184192 -0.251837 0
-0.178128 -0.25992 0
-0.16253 -0.244861 0
-0.129564 -0.187861 0
-0.0763477 -0.101912 0
0 0 0
0 0 0
-0.0821952 0.157677 0
-0.140331 0.251958 0
-0.175965 0.292278 0
-0.190656 0.288072 0
-0.194179 0.262129 0
-0.196308 0.237236 0
-0.197756 0.211522 0
-0.199234 0.183117 0
-0.200573 0.153093 0
-0.201601 0.122523 0
-0.202247 0.0919125 0
-0.202436 0.0617682 0
-0.202023 0.032247 0
-0.200863 0.00350617 0
-0.198977 -0.0245972 0
-0.196388 -0.0522062 0
-0.193237 -0.0794236 0
-0.189662 -0.106352 0
-0.1859 -0.13279 0
-0.182188 -0.158533 0
-0.178777 -0.183033 0
-0.17592 -0.205739 0
-0.173431 -0.225846 0
-0.171128 -0.242548 0
-0.168541 -0.25658 0
-0.165201 -0.268675 0
-0.153418 -0.258511 0
-0.125498 -0.205763 0
-0.0761291 -0.117303 0
0 0 0
0 0 0
-0.0783435 0.168657 0
-0.131276 0.264942 0
-0.161841 0.302322 0
-0.173079 0.294265 0
-0.174398 0.265016 0
-0.175208 0.238824 0
-0.17597 0.212871 0
-0.177147 0.184339 0
-0.178444 0.154197 0
-0.179563 0.123411 0
-0.180418 0.0924567 0
-0.180924 0.0618072 0
-0.180938 0.0316695 0
-0.180319 0.0022501 0
-0.179072 -0.0265276 0
-0.177205 -0.0547404 0
-0.174837 -0.0824344 0
-0.172084 -0.109656 0
-0.169147 -0.136173 0
-0.166227 -0.161752 0
-0.163558 -0.185908 0
-0.161379 -0.208152 0
-0.159635 -0.227833 0
-0.158274 -0.244297 0
-0.157056 -0.259112 0
-0.15574 -0.273846 0
-0.14676 -0.266774 0
-0.12255 -0.21617 0
-0.076 -0.125942 0
0 0 0
0 0 0
-0.0754261 0.173139 0
-0.124687 0.271052 0
-0.151693 0.307836 0
-0.160357 0.297587 0
-0.159936 0.26618 0
-0.15969 0.239489 0
-0.159936 0.213826 0
-0.160991 0.185503 0
-0.162428 0.155444 0
-0.163818 0.124571 0
-0.165051 0.0933665 0
-0.166014 0.062312 0
-0.166569 0.0316569 0
-0.166577 0.00165043 0
-0.166031 -0.0277241 0
-0.164924 -0.0564832 0
-0.163345 -0.0846216 0
-0.161382 -0.112134 0
-0.159197 -0.138763 0
-0.15695 -0.164251 0
-0.154866 -0.188131 0
-0.153172 -0.209934 0
-0.151947 -0.229089 0
-0.15127 -0.245026 0
-0.151008 -0.260073 0
-0.151023 -0.276561 0
-0.143774 -0.271332 0
-0.121717 -0.221229 0
-0.076557 -0.129652 0
0 0 0
0 0 0
-0.0743188 0.173137 0
-0.121984 0.272506 0
-0.14723 0.310349 0
-0.154292 0.298908 0
-0.152587 0.265983 0
-0.151533 0.239371 0
-0.15138 0.21447 0
-0.152377 0.186676 0
-0.153988 0.156907 0
-0.155676 0.126082 0
-0.157313 0.09472 0
-0.158772 0.0633429 0
-0.159904 0.0322469 0
-0.160562 0.0017281 0
-0.16073 -0.0281822 0
-0.160391 -0.057453 0
-0.159597 -0.0860313 0
-0.158403 -0.113864 0
-0.156936 -0.140671 0
-0.155325 -0.166174 0
-0.153771 -0.189875 0
-0.152477 -0.211277 0
-0.151623 -0.22986 0
-0.15139 -0.245105 0
-0.151665 -0.260103 0
-0.152331 -0.277946 0
-0.145678 -0.273866 0
-0.123995 -0.223091 0
-0.0783972 -0.130257 0
0 0 0
0 0 0
-0.0752969 0.17018 0
-0.123397 0.270984 0
-0.148555 0.311064 0
-0.155027 0.299073 0
-0.152603 0.264995 0
-0.151072 0.238818 0
-0.150691 0.214982 0
-0.151716 0.18793 0
-0.153531 0.158602 0
-0.155516 0.127936 0
-0.157543 0.0965068 0
-0.159483 0.0648904 0
-0.161179 0.0334311 0
-0.162473 0.00247344 0
-0.163339 -0.0279126 0
-0.163751 -0.0576571 0
-0.163727 -0.0866684 0
-0.163285 -0.114855 0
-0.162516 -0.141913 0
-0.161512 -0.167539 0
-0.160439 -0.191184 0
-0.15946 -0.212298 0
-0.158812 -0.230388 0
-0.15873 -0.24496 0
-0.159091 -0.259874 0
-0.159773 -0.278991 0
-0.152686 -0.27568 0
-0.129741 -0.22331 0
-0.0818686 -0.129032 0
0 0 0
0 0 0
-0.0786358 0.165795 0
-0.129154 0.268166 0
-0.155771 0.311184 0
-0.162705 0.298925 0
-0.160235 0.263789 0
-0.15864 0.238176 0
-0.158256 0.215541 0
-0.159419 0.189339 0
-0.161461 0.160543 0
-0.163716 0.130126 0
-0.166076 0.0987167 0
-0.168435 0.0669449 0
-0.170632 0.0352014 0
-0.172509 0.00387681 0
-0.174028 -0.0269256 0
-0.175152 -0.0571024 0
-0.17587 -0.086538 0
-0.176168 -0.115117 0
-0.176088 -0.142505 0
-0.175671 -0.168366 0
-0.175033 -0.192103 0
-0.174286 -0.213117 0
-0.17366 -0.230918 0
-0.173382 -0.245019 0
-0.17335 -0.260061 0
-0.173461 -0.280683 0
-0.165015 -0.278078 0
-0.139313 -0.22344 0
-0.0873197 -0.127252 0
0 0 0
0 0 0
-0.0838953 0.16109 0
-0.13886 0.265424 0
-0.16868 0.311877 0
-0.177145 0.299327 0
-0.175237 0.262912 0
-0.173937 0.237774 0
-0.173734 0.216321 0
-0.175114 0.190963 0
-0.177383 0.162714 0
-0.179849 0.132589 0
-0.182455 0.101265 0
-0.185141 0.0694173 0
-0.187753 0.0374754 0
-0.190135 0.00586885 0
-0.192243 -0.0252757 0
-0.194035 -0.0558314 0
-0.195465 -0.0856679 0
-0.196491 -0.114655 0
-0.197103 -0.142438 0
-0.197291 -0.168665 0
-0.197083 -0.192687 0
-0.196507 -0.213856 0
-0.195758 -0.231679 0
-0.195033 -0.245666 0
-0.194193 -0.261289 0
-0.193097 -0.284024 0
-0.182241 -0.282337 0
-0.15212 -0.22469 0
-0.0942139 -0.125705 0
0 0 0
0 0 0
-0.0906352 0.157169 0
-0.152118 0.26413 0
-0.187084 0.314311 0
-0.198169 0.301139 0
-0.197366 0.262916 0
-0.196663 0.237942 0
-0.196779 0.217497 0
-0.198429 0.192861 0
-0.200903 0.165094 0
-0.20349 0.135261 0
-0.206218 0.104067 0
-0.209116 0.0722184 0
-0.212033 0.0401707 0
-0.214818 0.00838023 0
-0.217433 -0.0230174 0
-0.219839 -0.0538866 0
-0.221953 -0.0840859 0
-0.223694 -0.113474 0
-0.225012 -0.141708 0
-0.225859 -0.168446 0
-0.226118 -0.19299 0
-0.22567 -0.214641 0
-0.224694 -0.232904 0
-0.223367 -0.247284 0
-0.22137 -0.264188 0
-0.218382 -0.29002 0
-0.203936 -0.289731 0
-0.16757 -0.228271 0
-0.102015 -0.125181 0
0 0 0
0 0 0
-0.0997174 0.155096 0
-0.169322 0.26553 0
-0.210495 0.319467 0
-0.224914 0.305074 0
-0.225669 0.264259 0
-0.225846 0.238927 0
-0.226415 0.219144 0
-0.228345 0.194974 0
-0.230947 0.16754 0
-0.233534 0.137968 0
-0.236244 0.106951 0
-0.239214 0.0751848 0
-0.242304 0.0431386 0
-0.245374 0.0112817 0
-0.248396 -0.0202517 0
-0.251344 -0.0513273 0
-0.2541 -0.0818099 0
-0.256548 -0.111564 0
-0.258597 -0.140273 0
-0.260156 -0.167621 0
-0.260946 -0.192914 0
-0.260685 -0.215456 0
-0.259472 -0.234713 0
-0.257405 -0.250151 0
-0.253951 -0.269189 0
-0.248577 -0.299246 0
-0.229866 -0.301074 0
-0.1864 -0.235424 0
-0.111878 -0.126874 0
0 0 0
0 0 0
-0.112003 0.155935 0
-0.190867 0.270868 0
-0.238427 0.328328 0
-0.256518 0.311843 0
-0.259194 0.267398 0
-0.260511 0.240976 0
-0.261662 0.221338 0
-0.26384 0.197244 0
-0.266447 0.169906 0
-0.268882 0.140533 0
-0.271407 0.109743 0
-0.274285 0.0781529 0
-0.277395 0.0462304 0
-0.280616 0.014444 0
-0.283932 -0.0170794 0
-0.287327 -0.0482129 0
-0.290668 -0.078858 0
-0.293825 -0.108916 0
-0.29664 -0.138096 0
-0.298961 -0.166105 0
-0.300371 -0.192361 0
-0.300457 -0.216283 0
-0.299096 -0.237225 0
-0.296166 -0.25454 0
-0.291003 -0.276726 0
-0.282946 -0.312281 0
-0.259794 -0.317178 0
-0.209346 -0.247392 0
-0.124962 -0.131979 0
0 0 0
0 0 0
-0.124659 0.159296 0
-0.214321 0.280039 0
-0.269916 0.34121 0
-0.292378 0.321795 0
-0.297083 0.272527 0
-0.299411 0.244143 0
-0.300907 0.224033 0
-0.303118 0.19959 0
-0.30552 0.172101 0
-0.307592 0.142857 0
-0.309731 0.112335 0
-0.312334 0.0810139 0
-0.315297 0.0493424 0
-0.318517 0.0177698 0
-0.321989 -0.0135937 0
-0.325708 -0.0446381 0
-0.329537 -0.0753095 0
-0.333339 -0.105554 0
-0.336912 -0.135145 0
-0.340056 -0.163856 0
-0.342203 -0.191267 0
-0.342787 -0.216961 0
-0.341507 -0.240243 0
-0.338059 -0.260423 0
-0.331379 -0.286962 0
-0.3204 -0.329324 0
-0.292071 -0.33796 0
-0.233342 -0.263325 0
-0.138042 -0.139358 0
0 0 0
0 0 0
-0.134849 0.164791 0
-0.23725 0.292936 0
-0.303999 0.358434 0
-0.331891 0.33528 0
-0.338474 0.279842 0
-0.341294 0.248485 0
-0.342534 0.227188 0
-0.344378 0.201929 0
-0.346287 0.174036 0
-0.347728 0.144838 0
-0.349239 0.114618 0
-0.351363 0.0836588 0
-0.353999 0.0523705 0
-0.357048 0.0211617 0
-0.360516 -0.0098878 0
-0.364408 -0.0406981 0
-0.368584 -0.0712435 0
-0.372904 -0.101499 0
-0.377181 -0.131388 0
-0.381225 -0.160834 0
-0.384253 -0.18957 0
-0.385478 -0.217324 0
-0.384643 -0.243567 0
-0.381494 -0.267769 0
-0.37393 -0.300062 0
-0.35985 -0.350573 0
-0.325049 -0.363334 0
-0.255322 -0.282375 0
-0.147897 -0.147871 0
0 0 0
0 0 0
-0.146221 0.174019 0
-0.260978 0.312009 0
-0.33801 0.382327 0
-0.371057 0.353333 0
-0.3794 0.288972 0
-0.382315 0.253192 0
-0.382816 0.230046 0
-0.383918 0.203591 0
-0.385041 0.17513 0
-0.385608 0.145968 0
-0.386288 0.116146 0
-0.387753 0.0857061 0
-0.389894 0.0549809 0
-0.392604 0.0243043 0
-0.395894 -0.00626174 0
-0.399777 -0.0366549 0
-0.40412 -0.0668792 0
-0.408791 -0.0969386 0
-0.413632 -0.126937 0
-0.418488 -0.156978 0
-0.422416 -0.187027 0
-0.424475 -0.217048 0
-0.424422 -0.246718 0
-0.422015 -0.275716 0
-0.414247 -0.315262 0
-0.39811 -0.376578 0
-0.358056 -0.395398 0
-0.278537 -0.307455 0
-0.159278 -0.15993 0
0 0 0
0 0 0
-0.162424 0.188582 0
-0.286827 0.339705 0
-0.369285 0.415222 0
-0.405876 0.376987 0
-0.415892 0.299547 0
-0.418627 0.257451 0
-0.418026 0.231851 0
-0.418037 0.203904 0
-0.418074 0.174802 0
-0.417552 0.14574 0
-0.417235 0.116477 0
-0.417886 0.0867744 0
-0.419376 0.0568398 0
-0.421577 0.0268823 0
-0.424503 -0.00301546 0
-0.428166 -0.032771 0
-0.432457 -0.0624358 0
-0.437269 -0.0920614 0
-0.442453 -0.121905 0
-0.447863 -0.152223 0
-0.45259 -0.183398 0
-0.455726 -0.215808 0
-0.456757 -0.24922 0
-0.455167 -0.2834 0
-0.447924 -0.331804 0
-0.431993 -0.407887 0
-0.390417 -0.436247 0
-0.306239 -0.34148 0
-0.176939 -0.177945 0
0 0 0
0 0 0
-0.174853 0.19775 0
-0.309001 0.36392 0
-0.397528 0.44883 0
-0.435517 0.402802 0
-0.44463 0.312053 0
-0.446526 0.262801 0
-0.444988 0.233859 0
-0.443799 0.204042 0
-0.442597 0.174204 0
-0.441022 0.145201 0
-0.439779 0.116494 0
-0.43957 0.0875476 0
-0.440299 0.0584357 0
-0.441869 0.0292342 0
-0.444279 4.30731e-05 0
-0.447526 -0.0290378 0
-0.451521 -0.0580951 0
-0.456175 -0.0872156 0
-0.461338 -0.11681 0
-0.466862 -0.14729 0
-0.472009 -0.179479 0
-0.476037 -0.2142 0
-0.478132 -0.251569 0
-0.477477 -0.291701 0
-0.471857 -0.349407 0
-0.459052 -0.439503 0
-0.418501 -0.47565 0
-0.329637 -0.371512 0
-0.190718 -0.191493 0
0 0 0
0 0 0
-0.174905 0.190796 0
-0.321705 0.372551 0
-0.422441 0.474865 0
-0.459153 0.427338 0
-0.462293 0.326975 0
-0.462311 0.27078 0
-0.460529 0.237324 0
-0.458269 0.205179 0
-0.455821 0.174489 0
-0.453479 0.145399 0
-0.451617 0.117082 0
-0.450613 0.0887097 0
-0.450517 0.0602572 0
-0.451378 0.0316983 0
-0.453156 0.0031059 0
-0.45581 -0.0254469 0
-0.45924 -0.0540391 0
-0.463346 -0.08275 0
-0.46798 -0.112172 0
-0.472999 -0.142897 0
-0.477907 -0.176066 0
-0.482213 -0.21282 0
-0.48503 -0.254262 0
-0.485473 -0.301496 0
-0.482944 -0.367794 0
-0.476842 -0.466429 0
-0.438674 -0.503377 0
-0.339942 -0.384611 0
-0.19045 -0.190147 0
0 0 0
0 0 0
-0.160889 0.183843 0
-0.315081 0.377156 0
-0.427634 0.494212 0
-0.463603 0.449287 0
-0.461585 0.344171 0
-0.460176 0.280654 0
-0.458249 0.240481 0
-0.454677 0.205397 0
-0.450592 0.173988 0
-0.447127 0.144837 0
-0.444304 0.116868 0
-0.442146 0.0890015 0
-0.440869 0.0611673 0
-0.440687 0.0332952 0
-0.441564 0.00537874 0
-0.443464 -0.0225889 0
-0.446266 -0.0507046 0
-0.449852 -0.0790651 0
-0.453983 -0.10837 0
-0.458424 -0.139317 0
-0.463076 -0.173266 0
-0.467841 -0.211576 0
-0.471523 -0.2569 0
-0.472927 -0.311893 0
-0.473434 -0.386379 0
-0.474424 -0.490179 0
-0.438888 -0.525327 0
-0.329816 -0.393853 0
-0.174443 -0.187998 0
0 0 0
0 0 0
-0.131115 0.193015 0
-0.279273 0.389292 0
-0.396717 0.507758 0
-0.435687 0.467342 0
-0.435211 0.3635 0
-0.434317 0.291688 0
-0.43175 0.241561 0
-0.426255 0.202777 0
-0.419756 0.17103 0
-0.414173 0.142019 0
-0.409392 0.114483 0
-0.405298 0.0871638 0
-0.402192 0.0600287 0
-0.400377 0.0330458 0
-0.399931 0.00606729 0
-0.400933 -0.0210547 0
-0.403253 -0.0485282 0
-0.406763 -0.0765615 0
-0.410947 -0.105783 0
-0.415291 -0.136822 0
-0.420306 -0.171184 0
-0.426508 -0.210376 0
-0.431681 -0.259086 0
-0.43361 -0.322001 0
-0.435576 -0.404576 0
-0.440858 -0.512264 0
-0.407093 -0.547399 0
-0.291921 -0.412313 0
-0.141002 -0.199137 0
0 0 0
0 0 0
-0.0722015 0.19014 0
-0.170233 0.364518 0
-0.253258 0.46556 0
-0.280444 0.435698 0
-0.281467 0.34913 0
-0.286006 0.280058 0
-0.289711 0.226666 0
-0.288234 0.187138 0
-0.284227 0.15634 0
-0.280338 0.129139 0
-0.276434 0.10377 0
-0.272377 0.0784685 0
-0.268707 0.0534139 0
-0.265963 0.0287863 0
-0.264268 0.00429284 0
-0.263741 -0.0203596 0
-0.264348 -0.0455946 0
-0.266054 -0.0718355 0
-0.267907 -0.0993878 0
-0.268959 -0.128557 0
-0.270305 -0.161194 0
-0.273038 -0.199148 0
-0.274035 -0.247325 0
-0.270172 -0.310627 0
-0.269007 -0.388649 0
-0.278095 -0.480984 0
-0.260512 -0.507827 0
-0.179332 -0.38937 0
-0.0780089 -0.196474 0
0 0 0
2.77334e-30 0 0
0.0292303 0.147046 0
0.0560881 0.258393 0
0.0791741 0.31768 0
0.0970888 0.308552 0
0.101353 0.26523 0
0.0834853 0.221941 0
0.0591861 0.181894 0
0.0441535 0.148301 0
0.0350794 0.120641 0
0.0286556 0.0983943 0
0.0250194 0.0785727 0
0.0243082 0.0581872 0
0.0253669 0.037895 0
0.0270405 0.0183531 0
0.0294173 -0.00082331 0
0.0325855 -0.0200192 0
0.0362964 -0.0399881 0
0.0403012 -0.0614836 0
0.0461044 -0.084159 0
0.0552105 -0.107668 0
0.0662229 -0.134669 0
0.0777453 -0.167819 0
0.0928824 -0.208122 0
0.114739 -0.256579 0
0.12664 -0.304861 0
0.111913 -0.34464 0
0.0836329 -0.344845 0
0.0548737 -0.274405 0
0.026656 -0.152923 0
2.77334e-30 0 0
0.25 0 0
0.333268 0.0786829 0
0.434546 0.120394 0
0.52284 0.1379 0
0.567155 0.143965 0
0.574693 0.13959 0
0.552654 0.125775 0
0.520553 0.106565 0
0.497901 0.0860074 0
0.481907 0.0673787 0
0.469778 0.0539571 0
0.461615 0.0427097 0
0.457515 0.0306034 0
0.456209 0.0184358 0
0.45643 0.00700482 0
0.458411 -0.00401098 0
0.462386 -0.0149329 0
0.46798 -0.0265197 0
0.474815 -0.0395302 0
0.484327 -0.0532965 0
0.497952 -0.0671505 0
0.514563 -0.0836054 0
0.533029 -0.105175 0
0.555439 -0.12963 0
0.583878 -0.154742 0
0.600073 -0.169787 0
0.585751 -0.164042 0
0.534188 -0.14629 0
0.438662 -0.125316 0
0.332742 -0.082695 0
0.25 0 0
1 0 0
1 0 0
1 0 0
1 0 0
1 0 0
1 0 0
1 0 0
1 0 0
1 0 0
1 0 0
1 0 0
1 0 0
1 0 0
1 0 0
1 0 0
1 0 0
1 0 0
1 0 0
1 0 0
1 0 0
1 0 0
1 0 0
1 0 0
1 0 0
1 0 0
1 0 0
1 0 0
1 0 0
1 0 0
1 0 0
1 0 0
      </DataArray> 
      <DataArray type="Float64" NumberOfComponents="3" Name="Real Velocity" format="ascii">
0 0 0
0 0 0
0 0 0
0 0 0
0 0 0
0 0 0
0 0 0
0 0 0
0 0 0
0 0 0
0 0 0
0 0 0
0 0 0
0 0 0
0 0 0
0 0 0
0 0 0
0 0 0
0 0 0
0 0 0
0 0 0
0 0 0
0 0 0
0 0 0
0 0 0
0 0 0
0 0 0
0 0 0
0 0 0
0 0 0
0 0 0
0 0 0
0.0193671 -0.022622 0
0.0376825 -0.0147331 0
0.0378597 0.0098114 0
0.00281193 0.0371562 0
-0.0485649 0.0586043 0
-0.097375 0.0654589 0
-0.140752 0.0636704 0
-0.175831 0.0591893 0
-0.203313 0.0526575 0
-0.2239 0.044717 0
-0.238757 0.0360905 0
-0.249051 0.0275005 0
-0.255498 0.0189531 0
-0.258815 0.0104541 0
-0.259224 0.00192801 0
-0.256946 -0.00670085 0
-0.251731 -0.0154952 0
-0.243331 -0.0245179 0
-0.23108 -0.0336103 0
-0.214312 -0.0426139 0
-0.192047 -0.0509628 0
-0.163306 -0.0580911 0
-0.127956 -0.0626401 0
-0.0858655 -0.0632513 0
-0.0400584 -0.0555878 0
0.00644158 -0.0353129 0
0.0371909 -0.0100496 0
0.0357459 0.0125792 0