<?xml version="1.0"?>
<VTKFile type="UnstructuredGrid">
  <UnstructuredGrid>
  <Piece NumberOfPoints="961"  NumberOfCells="225">
    <Points>
      <DataArray type="Float64" NumberOfComponents="3" format="ascii">
0 0 0
0.0333333 0 0
0.0666667 0 0
0.1 0 0
0.133333 0 0
0.166667 0 0
0.2 0 0
0.233333 0 0
0.266667 0 0
0.3 0 0
0.333333 0 0
0.366667 0 0
0.4 0 0
0.433333 0 0
0.466667 0 0
0.5 0 0
0.533333 0 0
0.566667 0 0
0.6 0 0
0.633333 0 0
0.666667 0 0
0.7 0 0
0.733333 0 0
0.766667 0 0
0.8 0 0
0.833333 0 0
0.866667 0 0
0.9 0 0
0.933333 0 0
0.966667 0 0
1 0 0
0 0.0333333 0
0.0333333 0.0333333 0
0.0666667 0.0333333 0
0.1 0.0333333 0
0.133333 0.0333333 0
0.166667 0.0333333 0
0.2 0.0333333 0
0.233333 0.0333333 0
0.266667 0.0333333 0
0.3 0.0333333 0
0.333333 0.0333333 0
0.366667 0.0333333 0
0.4 0.0333333 0
0.433333 0.0333333 0
0.466667 0.0333333 0
0.5 0.0333333 0
0.533333 0.0333333 0
0.566667 0.0333333 0
0.6 0.0333333 0
0.633333 0.0333333 0
0.666667 0.0333333 0
0.7 0.0333333 0
0.733333 0.0333333 0
0.766667 0.0333333 0
0.8 0.0333333 0
0.833333 0.0333333 0
0.866667 0.0333333 0
0.9 0.0333333 0
0.933333 0.0333333 0
0.966667 0.0333333 0
1 0.0333333 0
0 0.0666667 0
0.0333333 0.0666667 0
0.0666667 0.0666667 0
0.1 0.0666667 0
0.133333 0.0666667 0
0.166667 0.0666667 0
0.2 0.0666667 0
0.233333 0.0666667 0
0.266667 0.0666667 0
0.3 0.0666667 0
0.333333 0.0666667 0
0.366667 0.0666667 0
0.4 0.0666667 0
0.433333 0.0666667 0
0.466667 0.0666667 0
0.5 0.0666667 0
0.533333 0.0666667 0
0.566667 0.0666667 0
0.6 0.0666667 0
0.633333 0.0666667 0
0.666667 0.0666667 0
0.7 0.0666667 0
0.733333 0.0666667 0
0.766667 0.0666667 0
0.8 0.0666667 0
0.833333 0.0666667 0
0.866667 0.0666667 0
0.9 0.0666667 0
0.933333 0.0666667 0
0.966667 0.0666667 0
1 0.0666667 0
0 0.1 0
0.0333333 0.1 0
0.0666667 0.1 0
0.1 0.1 0
0.133333 0.1 0
0.166667 0.1 0
0.2 0.1 0
0.233333 0.1 0
0.266667 0.1 0
0.3 0.1 0
0.333333 0.1 0
0.366667 0.1 0
0.4 0.1 0
0.433333 0.1 0
0.466667 0.1 0
0.5 0.1 0
0.533333 0.1 0
0.566667 0.1 0
0.6 0.1 0
0.633333 0.1 0
0.666667 0.1 0
0.7 0.1 0
0.733333 0.1 0
0.766667 0.1 0
0.8 0.1 0
0.833333 0.1 0
0.866667 0.1 0
0.9 0.1 0
0.933333 0.1 0
0.966667 0.1 0
1 0.1 0
0 0.133333 0
0.0333333 0.133333 0
0.0666667 0.133333 0
0.1 0.133333 0
0.133333 0.133333 0
0.166667 0.133333 0
0.2 0.133333 0
0.233333 0.133333 0
0.266667 0.133333 0
0.3 0.133333 0
0.333333 0.133333 0
0.366667 0.133333 0
0.4 0.133333 0
0.433333 0.133333 0
0.466667 0.133333 0
0.5 0.133333 0
0.533333 0.133333 0
0.566667 0.133333 0
0.6 0.133333 0
0.633333 0.133333 0
0.666667 0.133333 0
0.7 0.133333 0
0.733333 0.133333 0
0.766667 0.133333 0
0.8 0.133333 0
0.833333 0.133333 0
0.866667 0.133333 0
0.9 0.133333 0
0.933333 0.133333 0
0.966667 0.133333 0
1 0.133333 0
0 0.166667 0
0.0333333 0.166667 0
0.0666667 0.166667 0
0.1 0.166667 0
0.133333 0.166667 0
0.166667 0.166667 0
0.2 0.166667 0
0.233333 0.166667 0
0.266667 0.166667 0
0.3 0.166667 0
0.333333 0.166667 0
0.366667 0.166667 0
0.4 0.166667 0
0.433333 0.166667 0
0.466667 0.166667 0
0.5 0.166667 0
0.533333 0.166667 0
0.566667 0.166667 0
0.6 0.166667 0
0.633333 0.166667 0
0.666667 0.166667 0
0.7 0.166667 0
0.733333 0.166667 0
0.766667 0.166667 0
0.8 0.166667 0
0.833333 0.166667 0
0.866667 0.166667 0
0.9 0.166667 0
0.933333 0.166667 0
0.966667 0.166667 0
1 0.166667 0
0 0.2 0
0.0333333 0.2 0
0.0666667 0.2 0
0.1 0.2 0
0.133333 0.2 0
0.166667 0.2 0
0.2 0.2 0
0.233333 0.2 0
0.266667 0.2 0
0.3 0.2 0
0.333333 0.2 0
0.366667 0.2 0
0.4 0.2 0
0.433333 0.2 0
0.466667 0.2 0
0.5 0.2 0
0.533333 0.2 0
0.566667 0.2 0
0.6 0.2 0
0.633333 0.2 0
0.666667 0.2 0
0.7 0.2 0
0.733333 0.2 0
0.766667 0.2 0
0.8 0.2 0
0.833333 0.2 0
0.866667 0.2 0
0.9 0.2 0
0.933333 0.2 0
0.966667 0.2 0
1 0.2 0
0 0.233333 0
0.0333333 0.233333 0
0.0666667 0.233333 0
0.1 0.233333 0
0.133333 0.233333 0
0.166667 0.233333 0
0.2 0.233333 0
0.233333 0.233333 0
0.266667 0.233333 0
0.3 0.233333 0
0.333333 0.233333 0
0.366667 0.233333 0
0.4 0.233333 0
0.433333 0.233333 0
0.466667 0.233333 0
0.5 0.233333 0
0.533333 0.233333 0
0.566667 0.233333 0
0.6 0.233333 0
0.633333 0.233333 0
0.666667 0.233333 0
0.7 0.233333 0
0.733333 0.233333 0
0.766667 0.233333 0
0.8 0.233333 0
0.833333 0.233333 0
0.866667 0.233333 0
0.9 0.233333 0
0.933333 0.233333 0
0.966667 0.233333 0
1 0.233333 0
0 0.266667 0
0.0333333 0.266667 0
0.0666667 0.266667 0
0.1 0.266667 0
0.133333 0.266667 0
0.166667 0.266667 0
0.2 0.266667 0
0.233333 0.266667 0
0.266667 0.266667 0
0.3 0.266667 0
0.333333 0.266667 0
0.366667 0.266667 0
0.4 0.266667 0
0.433333 0.266667 0
0.466667 0.266667 0
0.5 0.266667 0
0.533333 0.266667 0
0.566667 0.266667 0
0.6 0.266667 0
0.633333 0.266667 0
0.666667 0.266667 0
0.7 0.266667 0
0.733333 0.266667 0
0.766667 0.266667 0
0.8 0.266667 0
0.833333 0.266667 0
0.866667 0.266667 0
0.9 0.266667 0
0.933333 0.266667 0
0.966667 0.266667 0
1 0.266667 0
0 0.3 0
0.0333333 0.3 0
0.0666667 0.3 0
0.1 0.3 0
0.133333 0.3 0
0.166667 0.3 0
0.2 0.3 0
0.233333 0.3 0
0.266667 0.3 0
0.3 0.3 0
0.333333 0.3 0
0.366667 0.3 0
0.4 0.3 0
0.433333 0.3 0
0.466667 0.3 0
0.5 0.3 0
0.533333 0.3 0
0.566667 0.3 0
0.6 0.3 0
0.633333 0.3 0
0.666667 0.3 0
0.7 0.3 0
0.733333 0.3 0
0.766667 0.3 0
0.8 0.3 0
0.833333 0.3 0
0.866667 0.3 0
0.9 0.3 0
0.933333 0.3 0
0.966667 0.3 0
1 0.3 0
0 0.333333 0
0.0333333 0.333333 0
0.0666667 0.333333 0
0.1 0.333333 0
0.133333 0.333333 0
0.166667 0.333333 0
0.2 0.333333 0
0.233333 0.333333 0
0.266667 0.333333 0
0.3 0.333333 0
0.333333 0.333333 0
0.366667 0.333333 0
0.4 0.333333 0
0.433333 0.333333 0
0.466667 0.333333 0
0.5 0.333333 0
0.533333 0.333333 0
0.566667 0.333333 0
0.6 0.333333 0
0.633333 0.333333 0
0.666667 0.333333 0
0.7 0.333333 0
0.733333 0.333333 0
0.766667 0.333333 0
0.8 0.333333 0
0.833333 0.333333 0
0.866667 0.333333 0
0.9 0.333333 0
0.933333 0.333333 0
0.966667 0.333333 0
1 0.333333 0
0 0.366667 0
0.0333333 0.366667 0
0.0666667 0.366667 0
0.1 0.366667 0
0.133333 0.366667 0
0.166667 0.366667 0
0.2 0.366667 0
0.233333 0.366667 0
0.266667 0.366667 0
0.3 0.366667 0
0.333333 0.366667 0
0.366667 0.366667 0
0.4 0.366667 0
0.433333 0.366667 0
0.466667 0.366667 0
0.5 0.366667 0
0.533333 0.366667 0
0.566667 0.366667 0
0.6 0.366667 0
0.633333 0.366667 0
0.666667 0.366667 0
0.7 0.366667 0
0.733333 0.366667 0
0.766667 0.366667 0
0.8 0.366667 0
0.833333 0.366667 0
0.866667 0.366667 0
0.9 0.366667 0
0.933333 0.366667 0
0.966667 0.366667 0
1 0.366667 0
0 0.4 0
0.0333333 0.4 0
0.0666667 0.4 0
0.1 0.4 0
0.133333 0.4 0
0.166667 0.4 0
0.2 0.4 0
0.233333 0.4 0
0.266667 0.4 0
0.3 0.4 0
0.333333 0.4 0
0.366667 0.4 0
0.4 0.4 0
0.433333 0.4 0
0.466667 0.4 0
0.5 0.4 0
0.533333 0.4 0
0.566667 0.4 0
0.6 0.4 0
0.633333 0.4 0
0.666667 0.4 0
0.7 0.4 0
0.733333 0.4 0
0.766667 0.4 0
0.8 0.4 0
0.833333 0.4 0
0.866667 0.4 0
0.9 0.4 0
0.933333 0.4 0
0.966667 0.4 0
1 0.4 0
0 0.433333 0
0.0333333 0.433333 0
0.0666667 0.433333 0
0.1 0.433333 0
0.133333 0.433333 0
0.166667 0.433333 0
0.2 0.433333 0
0.233333 0.433333 0
0.266667 0.433333 0
0.3 0.433333 0
0.333333 0.433333 0
0.366667 0.433333 0
0.4 0.433333 0
0.433333 0.433333 0
0.466667 0.433333 0
0.5 0.433333 0
0.533333 0.433333 0
0.566667 0.433333 0
0.6 0.433333 0
0.633333 0.433333 0
0.666667 0.433333 0
0.7 0.433333 0
0.733333 0.433333 0
0.766667 0.433333 0
0.8 0.433333 0
0.833333 0.433333 0
0.866667 0.433333 0
0.9 0.433333 0
0.933333 0.433333 0
0.966667 0.433333 0
1 0.433333 0
0 0.466667 0
0.0333333 0.466667 0
0.0666667 0.466667 0
0.1 0.466667 0
0.133333 0.466667 0
0.166667 0.466667 0
0.2 0.466667 0
0.233333 0.466667 0
0.266667 0.466667 0
0.3 0.466667 0
0.333333 0.466667 0
0.366667 0.466667 0
0.4 0.466667 0
0.433333 0.466667 0
0.466667 0.466667 0
0.5 0.466667 0
0.533333 0.466667 0
0.566667 0.466667 0
0.6 0.466667 0
0.633333 0.466667 0
0.666667 0.466667 0
0.7 0.466667 0
0.733333 0.466667 0
0.766667 0.466667 0
0.8 0.466667 0
0.833333 0.466667 0
0.866667 0.466667 0
0.9 0.466667 0
0.933333 0.466667 0
0.966667 0.466667 0
1 0.466667 0
0 0.5 0
0.0333333 0.5 0
0.0666667 0.5 0
0.1 0.5 0
0.133333 0.5 0
0.166667 0.5 0
0.2 0.5 0
0.233333 0.5 0
0.266667 0.5 0
0.3 0.5 0
0.333333 0.5 0
0.366667 0.5 0
0.4 0.5 0
0.433333 0.5 0
0.466667 0.5 0
0.5 0.5 0
0.533333 0.5 0
0.566667 0.5 0
0.6 0.5 0
0.633333 0.5 0
0.666667 0.5 0
0.7 0.5 0
0.733333 0.5 0
0.766667 0.5 0
0.8 0.5 0
0.833333 0.5 0
0.866667 0.5 0
0.9 0.5 0
0.933333 0.5 0
0.966667 0.5 0
1 0.5 0
0 0.533333 0
0.0333333 0.533333 0
0.0666667 0.533333 0
0.1 0.533333 0
0.133333 0.533333 0
0.166667 0.533333 0
0.2 0.533333 0
0.233333 0.533333 0
0.266667 0.533333 0
0.3 0.533333 0
0.333333 0.533333 0
0.366667 0.533333 0
0.4 0.533333 0
0.433333 0.533333 0
0.466667 0.533333 0
0.5 0.533333 0
0.533333 0.533333 0
0.566667 0.533333 0
0.6 0.533333 0
0.633333 0.533333 0
0.666667 0.533333 0
0.7 0.533333 0
0.733333 0.533333 0
0.766667 0.533333 0
0.8 0.533333 0
0.833333 0.533333 0
0.866667 0.533333 0
0.9 0.533333 0
0.933333 0.533333 0
0.966667 0.533333 0
1 0.533333 0
0 0.566667 0
0.0333333 0.566667 0
0.0666667 0.566667 0
0.1 0.566667 0
0.133333 0.566667 0
0.166667 0.566667 0
0.2 0.566667 0
0.233333 0.566667 0
0.266667 0.566667 0
0.3 0.566667 0
0.333333 0.566667 0
0.366667 0.566667 0
0.4 0.566667 0
0.433333 0.566667 0
0.466667 0.566667 0
0.5 0.566667 0
0.533333 0.566667 0
0.566667 0.566667 0
0.6 0.566667 0
0.633333 0.566667 0
0.666667 0.566667 0
0.7 0.566667 0
0.733333 0.566667 0
0.766667 0.566667 0
0.8 0.566667 0
0.833333 0.566667 0
0.866667 0.566667 0
0.9 0.566667 0
0.933333 0.566667 0
0.966667 0.566667 0
1 0.566667 0
0 0.6 0
0.0333333 0.6 0
0.0666667 0.6 0
0.1 0.6 0
0.133333 0.6 0
0.166667 0.6 0
0.2 0.6 0
0.233333 0.6 0
0.266667 0.6 0
0.3 0.6 0
0.333333 0.6 0
0.366667 0.6 0
0.4 0.6 0
0.433333 0.6 0
0.466667 0.6 0
0.5 0.6 0
0.533333 0.6 0
0.566667 0.6 0
0.6 0.6 0
0.633333 0.6 0
0.666667 0.6 0
0.7 0.6 0
0.733333 0.6 0
0.766667 0.6 0
0.8 0.6 0
0.833333 0.6 0
0.866667 0.6 0
0.9 0.6 0
0.933333 0.6 0
0.966667 0.6 0
1 0.6 0
0 0.633333 0
0.0333333 0.633333 0
0.0666667 0.633333 0
0.1 0.633333 0
0.133333 0.633333 0
0.166667 0.633333 0
0.2 0.633333 0
0.233333 0.633333 0
0.266667 0.633333 0
[...]
    <PointData>
      <DataArray type="Float64" NumberOfComponents="3" Name="Velocity" format="ascii">
0 0 0
0 0 0
0 0 0
0 0 0
0 0 0
0 0 0
0 0 0
0 0 0
0 0 0
0 0 0
0 0 0
0 0 0
0 0 0
0 0 0
0 0 0
0 0 0
0 0 0
0 0 0
0 0 0
0 0 0
0 0 0
0 0 0
0 0 0
0 0 0
0 0 0
0 0 0
0 0 0
0 0 0
0 0 0
0 0 0
0 0 0
0 0 0
-0.000470339 0.000426129 0
-0.00139819 0.000932367 0
-0.0029226 0.00142094 0
-0.00518262 0.00179408 0
-0.00785556 0.00201137 0
-0.0106187 0.00203241 0
-0.013361 0.00193163 0
-0.015971 0.00178347 0
-0.0183535 0.00158704 0
-0.0204128 0.00134146 0
-0.0221191 0.00106706 0
-0.0234425 0.000784196 0
-0.0243641 0.000492908 0
-0.0248648 0.000193249 0
-0.02494 -0.000109904 0
-0.0245847 -0.000411674 0
-0.023812 -0.000702568 0
-0.0226349 -0.000973091 0
-0.0210878 -0.00122513 0
-0.0192052 -0.00146056 0
-0.0170281 -0.00165425 0
-0.0145977 -0.00178107 0
-0.0120223 -0.0018546 0
-0.00941038 -0.00188844 0
-0.00684471 -0.00181676 0
-0.00440825 -0.00157372 0
-0.00238851 -0.00120235 0
-0.00107301 -0.000745687 0
-0.000323079 -0.000309606 0
0 0 0
0 0 0
-0.000688797 0.00106795 0
-0.00291599 0.00261812 0
-0.00637365 0.00414434 0
-0.0107539 0.00514043 0
-0.0156719 0.00567002 0
-0.0207431 0.00579672 0
-0.0257387 0.00561336 0
-0.0304302 0.00521275 0
-0.0346903 0.00464468 0
-0.0383917 0.00395896 0
-0.041473 0.00318924 0
-0.0438729 0.00236915 0
-0.045549 0.00150862 0
-0.046459 0.000617548 0
-0.0465951 -0.000285109 0
-0.0459494 -0.00118041 0
-0.0445431 -0.00204673 0
-0.0423973 -0.00286243 0
-0.0395761 -0.00361193 0
-0.0361434 -0.00427966 0
-0.0321926 -0.00483522 0
-0.0278168 -0.00524822 0
-0.0231579 -0.00547931 0
-0.0183577 -0.00548913 0
-0.0136447 -0.00522435 0
-0.00924766 -0.00463162 0
-0.00543844 -0.00365165 0
-0.00248894 -0.00222513 0
-0.000606886 -0.000843945 0
0 0 0
0 0 0
-0.00121354 0.00280668 0
-0.00480787 0.00601802 0
-0.0100682 0.00889439 0
-0.0162799 0.0106962 0
-0.0230582 0.0116004 0
-0.0300184 0.0117839 0
-0.0368471 0.0113892 0
-0.0432311 0.0105589 0
-0.0490286 0.00940318 0
-0.0540983 0.00803208 0
-0.0583407 0.00649263 0
-0.0616562 0.00483184 0
-0.0639821 0.00307926 0
-0.0652556 0.00126448 0
-0.0654628 -0.000574058 0
-0.0645901 -0.00239789 0
-0.0626673 -0.00416502 0
-0.0597242 -0.00583347 0
-0.0558494 -0.00735865 0
-0.0511316 -0.00869596 0
-0.0457178 -0.00980639 0
-0.039755 -0.010651 0
-0.033399 -0.0111385 0
-0.0268052 -0.0111778 0
-0.0202976 -0.0106968 0
-0.0141999 -0.00962306 0
-0.00875852 -0.00782367 0
-0.00421984 -0.00516558 0
-0.00112123 -0.00233047 0
0 0 0
0 0 0
-0.00260273 0.00652354 0
-0.00732832 0.0120928 0
-0.0137215 0.0163953 0
-0.0213269 0.0191185 0
-0.0296235 0.0204269 0
-0.0380901 0.0204849 0
-0.0464002 0.0196033 0
-0.0542272 0.0180932 0
-0.0613867 0.0160928 0
-0.0676944 0.0137404 0
-0.073001 0.0111034 0
-0.0771576 0.00824924 0
-0.0800909 0.00523699 0
-0.0817277 0.00212562 0
-0.0820409 -0.0010252 0
-0.0810032 -0.00415576 0
-0.0786589 -0.00718995 0
-0.0750524 -0.0100517 0
-0.070292 -0.0126635 0
-0.0644863 -0.0149481 0
-0.0578281 -0.0168313 0
-0.0505099 -0.0182387 0
-0.0427375 -0.0190965 0
-0.0347163 -0.0193303 0
-0.0267012 -0.0187081 0
-0.0189467 -0.0169974 0
-0.0119575 -0.0141942 0
-0.00623779 -0.0102943 0
-0.00213592 -0.00549664 0
0 0 0
0 0 0
-0.00366605 0.0106634 0
-0.00959624 0.0188084 0
-0.0173026 0.0246109 0
-0.026297 0.0282466 0
-0.0359742 0.0299351 0
-0.0457288 0.0298961 0
-0.0552756 0.0285743 0
-0.0643296 0.0264147 0
-0.0726566 0.0235659 0
-0.0800223 0.0201768 0
-0.0862476 0.0163501 0
-0.0911532 0.0121888 0
-0.0946459 0.00777994 0
-0.0966322 0.0032104 0
-0.0970684 -0.00142803 0
-0.0959107 -0.00604362 0
-0.0932119 -0.0105174 0
-0.0890249 -0.0147304 0
-0.0834806 -0.0185682 0
-0.0767096 -0.0219163 0
-0.0689402 -0.0246528 0
-0.0604005 -0.0266558 0
-0.0513663 -0.027885 0
-0.0421129 -0.0283006 0
-0.0328175 -0.0275542 0
-0.0236573 -0.0252975 0
-0.0152554 -0.0215109 0
-0.00823519 -0.0161747 0
-0.00301169 -0.00907557 0
0 0 0
0 0 0
-0.00321317 0.013671 0
-0.0107306 0.0241308 0
-0.0207808 0.0315051 0
-0.0315923 0.0359197 0
-0.0427166 0.0379106 0
-0.0537049 0.0380139 0
-0.0643512 0.0366208 0
-0.0744495 0.0341225 0
-0.0837305 0.030675 0
-0.0919247 0.0264343 0
-0.0988738 0.0215615 0
-0.104419 0.0162181 0
-0.108418 0.0105062 0
-0.110726 0.00452828 0
-0.111285 -0.00157207 0
-0.110035 -0.00765108 0
-0.10702 -0.0135433 0
-0.102285 -0.0190832 0
-0.0959919 -0.0241145 0
-0.0883034 -0.0284809 0
-0.079471 -0.0320142 0
-0.069746 -0.0345462 0
-0.0594781 -0.036036 0
-0.0490168 -0.0364427 0
-0.0386088 -0.0355312 0
-0.0285007 -0.0330663 0
-0.0188725 -0.0285216 0
-0.00990445 -0.0213702 0
-0.00310931 -0.0118004 0
0 0 0
0 0 0
-0.00290007 0.0192666 0
-0.0115371 0.0330185 0
-0.0232553 0.0420549 0
-0.0353991 0.047175 0
-0.0477426 0.0492908 0
-0.0600602 0.0493143 0
-0.0720533 0.0475704 0
-0.0834233 0.0443841 0
-0.0938862 0.0399683 0
-0.103158 0.0345359 0
-0.111069 0.0282743 0
-0.11745 0.0213709 0
-0.122114 0.0139509 0
-0.124873 0.00613935 0
-0.125653 -0.00186439 0
-0.124378 -0.00986109 0
-0.12108 -0.0176257 0
-0.115791 -0.0249331 0
-0.108694 -0.0315679 0
-0.0999683 -0.037315 0
-0.0899042 -0.0419548 0
-0.0787899 -0.0452683 0
-0.0670363 -0.0471628 0
-0.0550543 -0.0475455 0
-0.0433049 -0.046357 0
-0.032249 -0.0435376 0
-0.021619 -0.0382417 0
-0.011147 -0.0296238 0
-0.00316371 -0.0170783 0
0 0 0
0 0 0
-0.00438274 0.0311703 0
-0.0128215 0.0504302 0
-0.0238254 0.0612373 0
-0.0359034 0.0670496 0
-0.0489443 0.0690128 0
-0.0628367 0.0682729 0
-0.0768085 0.0652506 0
-0.0900876 0.0603667 0
-0.102402 0.0539938 0
-0.113478 0.0465046 0
-0.123022 0.0380251 0
-0.130739 0.0286812 0
-0.13644 0.0186488 0
-0.139937 0.00810372 0
-0.141135 -0.00271208 0
-0.139942 -0.0135566 0
-0.136388 -0.0241228 0
-0.130503 -0.0341034 0
-0.122454 -0.0431944 0
-0.112405 -0.0510917 0
-0.100723 -0.0575142 0
-0.0877754 -0.0621803 0
-0.074004 -0.0648788 0
-0.0598514 -0.0653982 0
-0.0461356 -0.0637499 0
-0.0336745 -0.0599451 0
-0.0223051 -0.0536869 0
-0.0118642 -0.0446783 0
-0.00390982 -0.0283168 0
0 0 0
0 0 0
-0.00521764 0.0403272 0
-0.0127714 0.0641342 0
-0.0225777 0.0768451 0
-0.0345531 0.0838838 0
-0.048316 0.0863549 0
-0.0634847 0.0853629 0
-0.0790063 0.0815033 0
-0.0938281 0.0753714 0
-0.107662 0.0674463 0
-0.120218 0.0582072 0
-0.131102 0.0477444 0
-0.139918 0.0361484 0
-0.146487 0.0236623 0
-0.150629 0.0105295 0
-0.152241 -0.00296617 0
-0.151217 -0.016541 0
-0.147576 -0.0298129 0
-0.141339 -0.0424002 0
-0.132648 -0.0538961 0
-0.121642 -0.0638941 0
-0.108733 -0.0720459 0
-0.0943276 -0.0780031 0
-0.0789049 -0.081428 0
-0.0629426 -0.0819824 0
-0.0474877 -0.0796419 0
-0.0335871 -0.0743821 0
-0.0215431 -0.0666403 0
-0.0116578 -0.0568542 0
-0.0043404 -0.0372364 0
0 0 0
0 0 0
-0.00296123 0.0376822 0
-0.00957409 0.0618993 0
-0.0195989 0.0766711 0
-0.0327961 0.0860179 0
-0.0478524 0.090595 0
-0.0634546 0.0910575 0
-0.0790362 0.0881706 0
-0.0940305 0.0826993 0
-0.108052 0.0750204 0
-0.120713 0.0655103 0
-0.131681 0.0543629 0
-0.140619 0.0417718 0
-0.147341 0.0280536 0
-0.151661 0.0135249 0
-0.153478 -0.00147768 0
-0.15269 -0.0166173 0
-0.149278 -0.0314745 0
-0.143218 -0.0456297 0
-0.13465 -0.0585756 0
-0.12371 -0.0698049 0
-0.110737 -0.0789036 0
-0.0960711 -0.0854576 0
-0.0802628 -0.089054 0
-0.0638625 -0.0892798 0
-0.047748 -0.0859655 0
-0.0327971 -0.0789418 0
-0.0199457 -0.0688851 0
-0.0101297 -0.0564717 0
-0.00344817 -0.0355579 0
0 0 0
0 0 0
-0.00120675 0.0314395 0
-0.00751914 0.0548343 0
-0.0181595 0.0717237 0
-0.0323503 0.0836469 0
-0.0481415 0.0907744 0
-0.0635835 0.0932767 0
-0.0786189 0.0919887 0
-0.0931907 0.0877449 0
-0.106817 0.0808094 0
-0.119014 0.0714458 0
-0.129548 0.0600017 0
-0.138182 0.0468243 0
-0.144729 0.0322962 0
-0.149 0.0168 0
-0.150909 0.000722596 0
-0.150365 -0.0155493 0
-0.147317 -0.0315795 0
-0.141712 -0.0469318 0
-0.133672 -0.0610264 0
-0.123321 -0.0732833 0
-0.110896 -0.0832025 0
-0.0966374 -0.0902836 0
-0.0811327 -0.0940447 0
-0.0649693 -0.0940036 0
-0.0487761 -0.089821 0
-0.0331822 -0.0811574 0
-0.0195961 -0.0685765 0
-0.00942647 -0.052642 0
-0.00283914 -0.0306759 0
0 0 0
0 0 0
-0.00354741 0.0298029 0
-0.010896 0.0540485 0
-0.0215301 0.0730113 0
-0.0349337 0.0869656 0
-0.0497716 0.0959345 0
-0.0647082 0.0999407 0
-0.0794753 0.0996936 0
-0.0938044 0.0959025 0
-0.107202 0.0889067 0
-0.119173 0.0790456 0
-0.129496 0.0667819 0
-0.13795 0.0525784 0
-0.144375 0.0368634 0
-0.148615 0.0200652 0
-0.150596 0.00260386 0
-0.150244 -0.0151006 0
-0.147522 -0.0326001 0
-0.142393 -0.0494466 0
-0.134925 -0.0650421 0
-0.125188 -0.0787886 0
-0.113369 -0.0900577 0
-0.0996579 -0.0982209 0
-0.0845701 -0.102688 0
-0.0686216 -0.102867 0
-0.052432 -0.098309 0
-0.0366205 -0.0885619 0
-0.0225778 -0.0738699 0
-0.0116947 -0.0544765 0
-0.00411932 -0.0299854 0
0 0 0
0 0 0
-0.0064607 0.0323127 0
-0.0151984 0.0592752 0
-0.0260138 0.080732 0
-0.0387075 0.0965278 0
-0.0527494 0.106786 0
-0.0676098 0.111631 0
-0.0826139 0.111672 0
-0.0970869 0.107517 0
-0.110562 0.0996754 0
-0.12257 0.0886538 0
-0.132896 0.0750024 0
-0.141322 0.0592712 0
-0.147733 0.0419153 0
-0.15201 0.0233901 0
-0.154098 0.00412968 0
-0.153938 -0.0154319 0
-0.151511 -0.0348339 0
-0.146797 -0.0536156 0
-0.139796 -0.0711747 0
-0.130509 -0.0869088 0
-0.119075 -0.100053 0
-0.105634 -0.109842 0
-0.0906084 -0.115541 0
-0.0744216 -0.116415 0
-0.0577904 -0.111873 0
-0.0414316 -0.101322 0
-0.0266077 -0.0846631 0
-0.014581 -0.0617991 0
-0.0056218 -0.033366 0
0 0 0
0 0 0
-0.00642411 0.038509 0
-0.0159199 0.0702476 0
-0.0279139 0.0950842 0
-0.0418325 0.112887 0
-0.0570821 0.124041 0
-0.0730691 0.12893 0
-0.0890429 0.12831 0
-0.104253 0.122935 0
-0.118252 0.113478 0
-0.130589 0.100614 0
-0.141121 0.0849621 0
-0.149702 0.0671396 0
-0.156251 0.0476119 0
-0.16069 0.0268444 0
-0.162974 0.0052636 0
-0.163061 -0.0167038 0
-0.160906 -0.0385783 0
-0.156463 -0.0598802 0
-0.149675 -0.079976 0
-0.140483 -0.098232 0
-0.128932 -0.113772 0
-0.115067 -0.125718 0
-0.0992813 -0.133162 0
-0.0819715 -0.135192 0
-0.0639265 -0.130957 0
-0.0459353 -0.119603 0
-0.0294024 -0.100854 0
-0.0157321 -0.0744339 0
-0.00567966 -0.0406976 0
0 0 0
0 0 0
-0.00541727 0.046062 0
-0.0154652 0.0833917 0
-0.0289661 0.111981 0
-0.0447421 0.131823 0
-0.0618067 0.143651 0
-0.0791732 0.148198 0
-0.0961439 0.146472 0
-0.112021 0.139484 0
-0.126413 0.128083 0
-0.138929 0.113123 0
-0.149513 0.0952761 0
-0.158109 0.0752162 0
-0.164686 0.0534115 0
-0.169215 0.0303304 0
-0.171669 0.00637431 0
-0.172023 -0.0180558 0
-0.170191 -0.04248 0
-0.166089 -0.0664185 0
-0.159595 -0.089204 0
-0.15059 -0.110169 0
-0.13901 -0.128348 0
-0.12479 -0.142777 0
-0.108279 -0.152322 0
-0.089821 -0.155851 0
-0.0702597 -0.152191 0
-0.0504364 -0.14017 0
-0.0319804 -0.119301 0
-0.0165211 -0.0890985 0
-0.00541028 -0.0493893 0
0 0 0
0 0 0
-0.00541981 0.0526421 0
-0.016239 0.0951333 0
-0.0309061 0.127337 0
-0.0478694 0.149116 0
-0.0659602 0.161569 0
-0.0840095 0.165793 0
-0.101298 0.163023 0
-0.117107 0.154492 0
-0.131188 0.141258 0
-0.143291 0.124374 0
-0.153417 0.104559 0
-0.161565 0.0825337 0
-0.16779 0.0587722 0
-0.172146 0.0337507 0
-0.174628 0.0078305 0
-0.175231 -0.0186271 0
-0.173847 -0.0451857 0
-0.170371 -0.0714086 0
-0.164595 -0.0966169 0
-0.156313 -0.120131 0
-0.145376 -0.140918 0
-0.131639 -0.157943 0
-0.11529 -0.16979 0
-0.09652 -0.175044 0
-0.0762096 -0.172209 0
-0.0552398 -0.159789 0
-0.0353604 -0.136863 0
-0.018321 -0.102511 0
-0.00593101 -0.0568504 0
0 0 0
0 0 0
-0.00591288 0.0595416 0
-0.0176138 0.10718 0
-0.0332687 0.142802 0
-0.0510435 0.166291 0
-0.0696284 0.179107 0
-0.0877137 0.182709 0
-0.104615 0.178632 0
-0.119648 0.168414 0
-0.132725 0.153293 0
-0.143756 0.134507 0
-0.152827 0.112831 0
-0.160026 0.089039 0
-0.165499 0.0635941 0
-0.169396 0.0369588 0
-0.171744 0.00943691 0
-0.172568 -0.0186676 0
-0.171748 -0.0469931 0
-0.169164 -0.0751777 0
-0.164525 -0.102573 0
-0.157541 -0.128528 0
-0.14795 -0.151946 0
-0.135488 -0.171725 0
-0.120148 -0.18618 0
-0.101921 -0.193625 0
-0.0816182 -0.19213 0
-0.0600478 -0.179766 0
-0.0390804 -0.155073 0
-0.0205862 -0.116592 0
-0.00681078 -0.0647568 0
0 0 0
0 0 0
-0.00637765 0.0680531 0
-0.0189619 0.121241 0
-0.0355885 0.160026 0
-0.0540934 0.184872 0
-0.0728974 0.197576 0
-0.0904214 0.199938 0
-0.106203 0.193974 0
-0.11978 0.181701 0
-0.131174 0.164478 0
-0.140405 0.143661 0
-0.14774 0.120109 0
-0.153447 0.0946792 0
-0.157752 0.0677772 0
-0.16088 0.0398083 0
-0.16291 0.0109983 0
-0.163916 -0.018427 0
-0.163764 -0.0481999 0
-0.162321 -0.0780529 0
-0.159238 -0.107429 0
-0.154167 -0.135771 0
-0.146647 -0.161898 0
-0.136213 -0.184633 0
-0.122684 -0.202105 0
-0.105878 -0.212448 0
-0.0863275 -0.213077 0
-0.0645625 -0.201408 0
-0.0426786 -0.175463 0
-0.022771 -0.133264 0
-0.00761853 -0.0747845 0
0 0 0
0 0 0
-0.00686681 0.0775966 0
-0.0204525 0.136607 0
-0.0380037 0.178262 0
-0.056767 0.203795 0
-0.0750634 0.215604 0
-0.0912136 0.216087 0
-0.104988 0.207744 0
-0.116158 0.193073 0
-0.124935 0.17358 0
-0.131531 0.15077 0
-0.136406 0.125538 0
-0.140021 0.0987797 0
-0.142684 0.0708209 0
-0.144704 0.0419877 0
-0.146209 0.0124042 0
-0.147328 -0.0178052 0
-0.147926 -0.0484919 0
-0.147868 -0.0795069 0
-0.146761 -0.110422 0
-0.144213 -0.140807 0
-0.13956 -0.169479 0
-0.13214 -0.195255 0
-0.121498 -0.216078 0
-0.10718 -0.229893 0
-0.0893907 -0.233441 0
-0.0683358 -0.223465 0
-0.0461538 -0.19716 0
-0.0249834 -0.151722 0
-0.00840524 -0.08629 0
0 0 0
0 0 0
-0.00743305 0.0875923 0
-0.0222548 0.152569 0
-0.0406522 0.196761 0
-0.0588122 0.221996 0
-0.0754226 0.231817 0
-0.0891712 0.229766 0
-0.0998971 0.218642 0
-0.107439 0.201248 0
-0.112411 0.179363 0
-0.115427 0.154764 0
-0.117073 0.128262 0
-0.117939 0.100666 0
-0.118436 0.0722248 0
-0.118974 0.0431854 0
-0.119725 0.0135442 0
-0.120857 -0.0167026 0
-0.122262 -0.0475549 0
-0.123829 -0.0790128 0
-0.125121 -0.110787 0
-0.125698 -0.142587 0
-0.124783 -0.173392 0
-0.121596 -0.20218 0
-0.115189 -0.22661 0
-0.104614 -0.244339 0
-0.089861 -0.251615 0
-0.0709197 -0.244688 0
-0.0495049 -0.219292 0
-0.0273313 -0.171167 0
-0.00922193 -0.0986294 0
0 0 0
0 0 0
-0.00833744 0.0986581 0
-0.0240392 0.169188 0
-0.042513 0.214765 0
-0.0591664 0.238562 0
-0.0729562 0.245326 0
-0.0828391 0.2398 0
-0.0889785 0.225261 0
-0.0915377 0.204984 0
-0.0915483 0.180882 0
-0.0900419 0.154869 0
-0.0877095 0.127623 0
-0.0852421 0.0998238 0
-0.0831314 0.0716121 0
-0.0818693 0.0431276 0
-0.0816548 0.0142311 0
-0.0826868 -0.0152164 0
-0.0848978 -0.0453729 0
-0.0882202 -0.0763965 0
-0.0922057 -0.10817 0
-0.0964063 -0.140577 0
-0.0999854 -0.172834 0
-0.102106 -0.20416 0
-0.101339 -0.23213 0
-0.096254 -0.254321 0
-0.0863142 -0.266337 0
-0.0709834 -0.26378 0
-0.0515827 -0.240763 0
-0.0294333 -0.191399 0
-0.010313 -0.112281 0
0 0 0
0 0 0
-0.00984107 0.111412 0
-0.0254762 0.186524 0
-0.0425651 0.231519 0
-0.0567672 0.252581 0
-0.0666454 0.255239 0
-0.0707625 0.245019 0
-0.0702821 0.226193 0
-0.0663681 0.203036 0
-0.0602923 0.177192 0
-0.0533266 0.150308 0
-0.0462821 0.122964 0
-0.0399698 0.0957385 0
-0.0348961 0.0686058 0
-0.0315671 0.04154 0
-0.0301969 0.0142778 0
-0.0309999 -0.0134441 0
-0.0339586 -0.04193 0
-0.0390554 -0.0714839 0
-0.0459045 -0.102218 0
-0.05412 -0.134243 0
-0.0628385 -0.167004 0
-0.0711965 -0.199944 0
-0.0775291 -0.231067 0
-0.0801714 -0.258376 0
-0.0773261 -0.276345 0
-0.0671961 -0.279446 0
-0.0512379 -0.260475 0
-0.0309079 -0.212224 0
-0.011923 -0.127722 0
0 0 0
0 0 0
-0.0107726 0.124514 0
-0.0261577 0.203112 0
-0.0410412 0.245563 0
-0.0503088 0.261633 0
-0.0532304 0.25835 0
-0.0490761 0.242738 0
-0.0400226 0.219711 0
-0.0282464 0.19418 0
-0.0151464 0.167365 0
-0.00212112 0.140485 0
0.00998415 0.113967 0
0.0203242 0.0882371 0
0.0284492 0.0630947 0
0.0339095 0.0383385 0
0.036501 0.0136023 0
0.0360197 -0.0114798 0
0.0324304 -0.0373291 0
0.0256976 -0.0643664 0
0.0160799 -0.0929295 0
0.00383568 -0.123356 0
-0.0102532 -0.155358 0
-0.0254049 -0.188647 0
-0.0399299 -0.221881 0
-0.0521386 -0.253714 0
-0.0590399 -0.278022 0
-0.0576427 -0.288678 0
-0.048237 -0.276376 0
-0.0311127 -0.231806 0
-0.0128427 -0.143503 0
0 0 0
0 0 0
-0.00996054 0.136625 0
-0.0256757 0.217492 0
-0.0381743 0.255438 0
-0.0384853 0.263299 0
-0.0294513 0.251452 0
-0.013915 0.230275 0
0.00558531 0.204084 0
0.0265112 0.177194 0
0.0473862 0.150475 0
0.0667339 0.124802 0
0.0838641 0.100312 0
0.0980868 0.0771465 0
0.109084 0.0549679 0
0.116537 0.0334389 0
0.120291 0.0121227 0
0.120189 -0.00941758 0
0.116144 -0.0316731 0
0.108072 -0.055135 0
0.0960442 -0.0803051 0
0.0801355 -0.107685 0
0.0608594 -0.137352 0
0.0387299 -0.169383 0
0.0152873 -0.20303 0
-0.00792794 -0.237546 0
-0.0275987 -0.267751 0
-0.0404079 -0.288467 0
-0.0423463 -0.286414 0
-0.0294049 -0.248314 0
-0.011863 -0.158173 0
0 0 0
0 0 0
-0.00920964 0.150381 0
-0.0204416 0.228325 0
-0.02397 0.255146 0
-0.0100687 0.252162 0
0.0146028 0.231736 0
0.0433853 0.206234 0
0.0739348 0.178688 0
0.103907 0.152131 0
0.131985 0.127069 0
0.156851 0.104005 0
0.178122 0.0827607 0
0.195416 0.0631562 0
0.208605 0.044775 0
0.21756 0.0272006 0
0.222201 0.00997336 0
0.222446 -0.00736631 0
0.218169 -0.0253236 0
0.209242 -0.0444035 0
0.195538 -0.0651818 0
0.176929 -0.0882341 0
0.153532 -0.113997 0
0.125466 -0.142906 0
0.093866 -0.174753 0
0.0598644 -0.209328 0
0.0262829 -0.243271 0
-0.00405761 -0.273218 0
-0.0227616 -0.283691 0
-0.0214335 -0.259215 0
-0.0104031 -0.173436 0
0 0 0
0 0 0
-0.0103245 0.168421 0
-0.00686716 0.234272 0
0.011566 0.238689 0
0.0461689 0.222807 0
0.0888429 0.196393 0
0.131489 0.169217 0
0.172419 0.142895 0
0.209945 0.119047 0
0.243331 0.0976905 0
0.271843 0.0788422 0
0.295523 0.0620734 0
0.314411 0.0469554 0
0.32861 0.033066 0
0.338223 0.0199832 0
0.343259 0.00728888 0
0.343731 -0.00543503 0
0.33949 -0.0186419 0
0.330386 -0.0327852 0
0.316113 -0.0483968 0
0.296365 -0.0660082 0
0.270797 -0.0863048 0
0.239063 -0.109972 0
0.20155 -0.137284 0
0.158642 -0.168519 0
0.11189 -0.202321 0
0.0628422 -0.237337 0
0.0213217 -0.261309 0
-0.00284756 -0.261979 0
-0.00988245 -0.190993 0
0 0 0
0 0 0
0.0118308 0.164901 0
0.0463034 0.213028 0
0.0956837 0.198259 0
0.152238 0.174468 0
0.20986 0.147371 0
0.262442 0.122681 0
0.309429 0.100756 0
0.350267 0.0819513 0
0.385056 0.0659404 0
0.413898 0.0523949 0
0.437246 0.0407708 0
0.455552 0.0305239 0
0.469115 0.0213013 0
0.478235 0.0127504 0
0.483005 0.00454458 0
0.483518 -0.0036426 0
0.479622 -0.0121623 0
0.471165 -0.0213656 0
0.457729 -0.0316549 0
0.438897 -0.0434326 0
0.413942 -0.0574548 0
0.382141 -0.0744774 0
0.342984 -0.0950342 0
0.295964 -0.119659 0
0.240976 -0.148617 0
0.177915 -0.182175 0
0.113891 -0.213197 0
0.0560121 -0.234546 0
0.0146059 -0.184166 0
0 0 0
2.77334e-30 0 0
0.0823924 0.113979 0
0.170326 0.142287 0
0.255633 0.126047 0
0.330149 0.10638 0
0.394243 0.0866149 0
0.448289 0.0700832 0
0.493356 0.0563178 0
0.530517 0.0448522 0
0.560792 0.0354175 0
0.585205 0.0277452 0
0.604473 0.0213737 0
0.61932 0.0158414 0
0.630135 0.0109412 0
0.63731 0.00646575 0
0.64098 0.00221584 0
0.641282 -0.00200791 0
0.638081 -0.00641869 0
0.631245 -0.0112297 0
0.62035 -0.0166609 0
0.604977 -0.0229324 0
0.584256 -0.0306252 0
0.557321 -0.0403203 0
0.522816 -0.0524106 0
0.479387 -0.0672891 0
0.425292 -0.0858737 0
0.358786 -0.109082 0
0.278934 -0.133286 0
0.184804 -0.154858 0
0.0879688 -0.126272 0
2.77334e-30 0 0
0.25 0 0
0.359177 0.0481723 0
0.457468 0.0589706 0
0.540658 0.0504845 0
0.604527 0.0408032 0
0.653716 0.03165 0
0.692863 0.024748 0
0.723709 0.019445 0
0.747994 0.0150888 0
0.766966 0.0116086 0
0.78187 0.00893343 0
0.793345 0.00680802 0
0.80203 0.00497707 0
0.808239 0.00337695 0
0.812285 0.00194406 0
0.81428 0.000601396 0
0.814337 -0.000728018 0
0.812372 -0.00212623 0
0.808298 -0.00367528 0
0.801824 -0.00543573 0
0.79266 -0.00746814 0
0.780142 -0.0100593 0
0.763606 -0.0134958 0
0.741627 -0.0179027 0
0.712778 -0.0234048 0
0.674935 -0.0307739 0
0.625973 -0.0407821 0
0.559841 -0.0520595 0
0.470483 -0.0632363 0
0.364877 -0.0529905 0
0.25 0 0
1 0 0
1 0 0
1 0 0
1 0 0
1 0 0
1 0 0
1 0 0
1 0 0
1 0 0
1 0 0
1 0 0
1 0 0
1 0 0
1 0 0
1 0 0
1 0 0
1 0 0
1 0 0
1 0 0
1 0 0
1 0 0
1 0 0
1 0 0
1 0 0
1 0 0
1 0 0
1 0 0
1 0 0
1 0 0
1 0 0
1 0 0
      </DataArray> 