<?xml version="1.0"?>
<VTKFile type="UnstructuredGrid">
  <UnstructuredGrid>
  <Piece NumberOfPoints="5265"  NumberOfCells="1280">
    <Points>
      <DataArray type="Float64" NumberOfComponents="3" format="ascii">
0 0 0
0.25 0 0
0.5 0 0
0.75 0 0
1 0 0
1.25 0 0
1.5 0 0
1.75 0 0
2 0 0
2.25 0 0
2.5 0 0
2.75 0 0
3 0 0
3.25 0 0
3.5 0 0
3.75 0 0
4 0 0
4.25 0 0
4.5 0 0
4.75 0 0
5 0 0
5.25 0 0
5.5 0 0
5.75 0 0
6 0 0
6.25 0 0
6.5 0 0
6.75 0 0
7 0 0
7.25 0 0
7.5 0 0
7.75 0 0
8 0 0
8.25 0 0
8.5 0 0
8.75 0 0
9 0 0
9.25 0 0
9.5 0 0
9.75 0 0
10 0 0
10.25 0 0
10.5 0 0
10.75 0 0
11 0 0
11.25 0 0
11.5 0 0
11.75 0 0
12 0 0
12.25 0 0
12.5 0 0
12.75 0 0
13 0 0
13.25 0 0
13.5 0 0
13.75 0 0
14 0 0
14.25 0 0
14.5 0 0
14.75 0 0
15 0 0
15.25 0 0
15.5 0 0
15.75 0 0
16 0 0
16.25 0 0
16.5 0 0
16.75 0 0
17 0 0
17.25 0 0
17.5 0 0
17.75 0 0
18 0 0
18.25 0 0
18.5 0 0
18.75 0 0
19 0 0
19.25 0 0
19.5 0 0
19.75 0 0
20 0 0
0 0.25 0
0.25 0.25 0
0.5 0.25 0
0.75 0.25 0
1 0.25 0
1.25 0.25 0
1.5 0.25 0
1.75 0.25 0
2 0.25 0
2.25 0.25 0
2.5 0.25 0
2.75 0.25 0
3 0.25 0
3.25 0.25 0
3.5 0.25 0
3.75 0.25 0
4 0.25 0
4.25 0.25 0
4.5 0.25 0
4.75 0.25 0
5 0.25 0
5.25 0.25 0
5.5 0.25 0
5.75 0.25 0
6 0.25 0
6.25 0.25 0
6.5 0.25 0
6.75 0.25 0
7 0.25 0
7.25 0.25 0
7.5 0.25 0
7.75 0.25 0
8 0.25 0
8.25 0.25 0
8.5 0.25 0
8.75 0.25 0
9 0.25 0
9.25 0.25 0
9.5 0.25 0
9.75 0.25 0
10 0.25 0
10.25 0.25 0
10.5 0.25 0
10.75 0.25 0
11 0.25 0
11.25 0.25 0
11.5 0.25 0
11.75 0.25 0
12 0.25 0
12.25 0.25 0
12.5 0.25 0
12.75 0.25 0
13 0.25 0
13.25 0.25 0
13.5 0.25 0
13.75 0.25 0
14 0.25 0
14.25 0.25 0
14.5 0.25 0
14.75 0.25 0
15 0.25 0
15.25 0.25 0
15.5 0.25 0
15.75 0.25 0
16 0.25 0
16.25 0.25 0
16.5 0.25 0
16.75 0.25 0
17 0.25 0
17.25 0.25 0
17.5 0.25 0
17.75 0.25 0
18 0.25 0
18.25 0.25 0
18.5 0.25 0
18.75 0.25 0
19 0.25 0
19.25 0.25 0
19.5 0.25 0
19.75 0.25 0
20 0.25 0
0 0.5 0
0.25 0.5 0
0.5 0.5 0
0.75 0.5 0
1 0.5 0
1.25 0.5 0
1.5 0.5 0
1.75 0.5 0
2 0.5 0
2.25 0.5 0
2.5 0.5 0
2.75 0.5 0
3 0.5 0
3.25 0.5 0
3.5 0.5 0
3.75 0.5 0
4 0.5 0
4.25 0.5 0
4.5 0.5 0
4.75 0.5 0
5 0.5 0
5.25 0.5 0
5.5 0.5 0
5.75 0.5 0
6 0.5 0
6.25 0.5 0
6.5 0.5 0
6.75 0.5 0
7 0.5 0
7.25 0.5 0
7.5 0.5 0
7.75 0.5 0
8 0.5 0
8.25 0.5 0
8.5 0.5 0
8.75 0.5 0
9 0.5 0
9.25 0.5 0
9.5 0.5 0
9.75 0.5 0
10 0.5 0
10.25 0.5 0
10.5 0.5 0
10.75 0.5 0
11 0.5 0
11.25 0.5 0
11.5 0.5 0
11.75 0.5 0
12 0.5 0
12.25 0.5 0
12.5 0.5 0
12.75 0.5 0
13 0.5 0
13.25 0.5 0
13.5 0.5 0
13.75 0.5 0
14 0.5 0
14.25 0.5 0
14.5 0.5 0
14.75 0.5 0
15 0.5 0
15.25 0.5 0
15.5 0.5 0
15.75 0.5 0
16 0.5 0
16.25 0.5 0
16.5 0.5 0
16.75 0.5 0
17 0.5 0
17.25 0.5 0
17.5 0.5 0
17.75 0.5 0
18 0.5 0
18.25 0.5 0
18.5 0.5 0
18.75 0.5 0
19 0.5 0
19.25 0.5 0
19.5 0.5 0
19.75 0.5 0
20 0.5 0
0 0.75 0
0.25 0.75 0
0.5 0.75 0
0.75 0.75 0
1 0.75 0
1.25 0.75 0
1.5 0.75 0
1.75 0.75 0
2 0.75 0
2.25 0.75 0
2.5 0.75 0
2.75 0.75 0
3 0.75 0
3.25 0.75 0
3.5 0.75 0
3.75 0.75 0
4 0.75 0
4.25 0.75 0
4.5 0.75 0
4.75 0.75 0
5 0.75 0
5.25 0.75 0
5.5 0.75 0
5.75 0.75 0
6 0.75 0
6.25 0.75 0
6.5 0.75 0
6.75 0.75 0
7 0.75 0
7.25 0.75 0
7.5 0.75 0
7.75 0.75 0
8 0.75 0
8.25 0.75 0
8.5 0.75 0
8.75 0.75 0
9 0.75 0
9.25 0.75 0
9.5 0.75 0
9.75 0.75 0
10 0.75 0
10.25 0.75 0
10.5 0.75 0
10.75 0.75 0
11 0.75 0
11.25 0.75 0
11.5 0.75 0
11.75 0.75 0
12 0.75 0
12.25 0.75 0
12.5 0.75 0
12.75 0.75 0
13 0.75 0
13.25 0.75 0
13.5 0.75 0
13.75 0.75 0
14 0.75 0
14.25 0.75 0
14.5 0.75 0
14.75 0.75 0
15 0.75 0
15.25 0.75 0
15.5 0.75 0
15.75 0.75 0
16 0.75 0
16.25 0.75 0
16.5 0.75 0
16.75 0.75 0
17 0.75 0
17.25 0.75 0
17.5 0.75 0
17.75 0.75 0
18 0.75 0
18.25 0.75 0
18.5 0.75 0
18.75 0.75 0
19 0.75 0
19.25 0.75 0
19.5 0.75 0
19.75 0.75 0
20 0.75 0
0 1 0
0.25 1 0
0.5 1 0
0.75 1 0
1 1 0
1.25 1 0
1.5 1 0
1.75 1 0
2 1 0
2.25 1 0
2.5 1 0
2.75 1 0
3 1 0
3.25 1 0
3.5 1 0
3.75 1 0
4 1 0
4.25 1 0
4.5 1 0
4.75 1 0
5 1 0
5.25 1 0
5.5 1 0
5.75 1 0
6 1 0
6.25 1 0
6.5 1 0
6.75 1 0
7 1 0
7.25 1 0
7.5 1 0
7.75 1 0
8 1 0
8.25 1 0
8.5 1 0
8.75 1 0
9 1 0
9.25 1 0
9.5 1 0
9.75 1 0
10 1 0
10.25 1 0
10.5 1 0
10.75 1 0
11 1 0
11.25 1 0
11.5 1 0
11.75 1 0
12 1 0
12.25 1 0
12.5 1 0
12.75 1 0
13 1 0
13.25 1 0
13.5 1 0
13.75 1 0
14 1 0
14.25 1 0
14.5 1 0
14.75 1 0
15 1 0
15.25 1 0
15.5 1 0
15.75 1 0
16 1 0
16.25 1 0
16.5 1 0
16.75 1 0
17 1 0
17.25 1 0
17.5 1 0
17.75 1 0
18 1 0
18.25 1 0
18.5 1 0
18.75 1 0
19 1 0
19.25 1 0
19.5 1 0
19.75 1 0
20 1 0
0 1.25 0
0.25 1.25 0
0.5 1.25 0
0.75 1.25 0
1 1.25 0
1.25 1.25 0
1.5 1.25 0
1.75 1.25 0
2 1.25 0
2.25 1.25 0
2.5 1.25 0
2.75 1.25 0
3 1.25 0
3.25 1.25 0
3.5 1.25 0
3.75 1.25 0
4 1.25 0
4.25 1.25 0
4.5 1.25 0
4.75 1.25 0
5 1.25 0
5.25 1.25 0
5.5 1.25 0
5.75 1.25 0
6 1.25 0
6.25 1.25 0
6.5 1.25 0
6.75 1.25 0
7 1.25 0
7.25 1.25 0
7.5 1.25 0
7.75 1.25 0
8 1.25 0
8.25 1.25 0
8.5 1.25 0
8.75 1.25 0
9 1.25 0
9.25 1.25 0
9.5 1.25 0
9.75 1.25 0
10 1.25 0
10.25 1.25 0
10.5 1.25 0
10.75 1.25 0
11 1.25 0
11.25 1.25 0
11.5 1.25 0
11.75 1.25 0
12 1.25 0
12.25 1.25 0
12.5 1.25 0
12.75 1.25 0
13 1.25 0
13.25 1.25 0
13.5 1.25 0
13.75 1.25 0
14 1.25 0
14.25 1.25 0
14.5 1.25 0
14.75 1.25 0
15 1.25 0
15.25 1.25 0
15.5 1.25 0
15.75 1.25 0
16 1.25 0
16.25 1.25 0
16.5 1.25 0
16.75 1.25 0
17 1.25 0
17.25 1.25 0
17.5 1.25 0
17.75 1.25 0
18 1.25 0
18.25 1.25 0
18.5 1.25 0
18.75 1.25 0
19 1.25 0
19.25 1.25 0
19.5 1.25 0
19.75 1.25 0
20 1.25 0
0 1.5 0
0.25 1.5 0
0.5 1.5 0
0.75 1.5 0
1 1.5 0
1.25 1.5 0
1.5 1.5 0
1.75 1.5 0
2 1.5 0
2.25 1.5 0
2.5 1.5 0
2.75 1.5 0
3 1.5 0
3.25 1.5 0
3.5 1.5 0
3.75 1.5 0
4 1.5 0
4.25 1.5 0
4.5 1.5 0
4.75 1.5 0
5 1.5 0
5.25 1.5 0
5.5 1.5 0
5.75 1.5 0
6 1.5 0
6.25 1.5 0
6.5 1.5 0
6.75 1.5 0
7 1.5 0
7.25 1.5 0
7.5 1.5 0
7.75 1.5 0
8 1.5 0
8.25 1.5 0
8.5 1.5 0
8.75 1.5 0
9 1.5 0
9.25 1.5 0
9.5 1.5 0
9.75 1.5 0
10 1.5 0
10.25 1.5 0
10.5 1.5 0
10.75 1.5 0
11 1.5 0
11.25 1.5 0
11.5 1.5 0
11.75 1.5 0
12 1.5 0
12.25 1.5 0
12.5 1.5 0
12.75 1.5 0
13 1.5 0
13.25 1.5 0
13.5 1.5 0
13.75 1.5 0
14 1.5 0
14.25 1.5 0
14.5 1.5 0
14.75 1.5 0
15 1.5 0
15.25 1.5 0
15.5 1.5 0
15.75 1.5 0
16 1.5 0
16.25 1.5 0
16.5 1.5 0
16.75 1.5 0
17 1.5 0
17.25 1.5 0
17.5 1.5 0
17.75 1.5 0
18 1.5 0
18.25 1.5 0
18.5 1.5 0
18.75 1.5 0
19 1.5 0
19.25 1.5 0
19.5 1.5 0
19.75 1.5 0
20 1.5 0
0 1.75 0
0.25 1.75 0
0.5 1.75 0
0.75 1.75 0
1 1.75 0
1.25 1.75 0
1.5 1.75 0
1.75 1.75 0
2 1.75 0
2.25 1.75 0
2.5 1.75 0
2.75 1.75 0
3 1.75 0
3.25 1.75 0
3.5 1.75 0
3.75 1.75 0
4 1.75 0
4.25 1.75 0
4.5 1.75 0
4.75 1.75 0
5 1.75 0
5.25 1.75 0
5.5 1.75 0
5.75 1.75 0
6 1.75 0
6.25 1.75 0
6.5 1.75 0
6.75 1.75 0
7 1.75 0
7.25 1.75 0
7.5 1.75 0
7.75 1.75 0
8 1.75 0
8.25 1.75 0
8.5 1.75 0
8.75 1.75 0
9 1.75 0
9.25 1.75 0
9.5 1.75 0
9.75 1.75 0
10 1.75 0
10.25 1.75 0
10.5 1.75 0
10.75 1.75 0
11 1.75 0
11.25 1.75 0
11.5 1.75 0
11.75 1.75 0
12 1.75 0
12.25 1.75 0
12.5 1.75 0
12.75 1.75 0
13 1.75 0
13.25 1.75 0
13.5 1.75 0
13.75 1.75 0
14 1.75 0
14.25 1.75 0
14.5 1.75 0
14.75 1.75 0
15 1.75 0
15.25 1.75 0
15.5 1.75 0
15.75 1.75 0
16 1.75 0
16.25 1.75 0
16.5 1.75 0
16.75 1.75 0
17 1.75 0
17.25 1.75 0
17.5 1.75 0
17.75 1.75 0
18 1.75 0
18.25 1.75 0
18.5 1.75 0
18.75 1.75 0
19 1.75 0
19.25 1.75 0
19.5 1.75 0
19.75 1.75 0
20 1.75 0
0 2 0
0.25 2 0
0.5 2 0
0.75 2 0
1 2 0
1.25 2 0
1.5 2 0
1.75 2 0
2 2 0
2.25 2 0
2.5 2 0
2.75 2 0
3 2 0
3.25 2 0
3.5 2 0
3.75 2 0
4 2 0
4.25 2 0
4.5 2 0
4.75 2 0
5 2 0
5.25 2 0
5.5 2 0
5.75 2 0
6 2 0
6.25 2 0
6.5 2 0
6.75 2 0
7 2 0
7.25 2 0
7.5 2 0
7.75 2 0
8 2 0
8.25 2 0
8.5 2 0
8.75 2 0
9 2 0
9.25 2 0
9.5 2 0
9.75 2 0
10 2 0
10.25 2 0
10.5 2 0
10.75 2 0
11 2 0
11.25 2 0
11.5 2 0
11.75 2 0
12 2 0
12.25 2 0
12.5 2 0
12.75 2 0
13 2 0
13.25 2 0
13.5 2 0
13.75 2 0
14 2 0
14.25 2 0
14.5 2 0
14.75 2 0
15 2 0
15.25 2 0
15.5 2 0
15.75 2 0
16 2 0
16.25 2 0
16.5 2 0
16.75 2 0
17 2 0
17.25 2 0
17.5 2 0
17.75 2 0
18 2 0
18.25 2 0
18.5 2 0
18.75 2 0
19 2 0
19.25 2 0
19.5 2 0
19.75 2 0
20 2 0
0 2.25 0
0.25 2.25 0
0.5 2.25 0
0.75 2.25 0
1 2.25 0
1.25 2.25 0
1.5 2.25 0
1.75 2.25 0
2 2.25 0
2.25 2.25 0
2.5 2.25 0
2.75 2.25 0
3 2.25 0
3.25 2.25 0
3.5 2.25 0
3.75 2.25 0
4 2.25 0
4.25 2.25 0
4.5 2.25 0
4.75 2.25 0
5 2.25 0
5.25 2.25 0
5.5 2.25 0
5.75 2.25 0
6 2.25 0
6.25 2.25 0
6.5 2.25 0
6.75 2.25 0
7 2.25 0
7.25 2.25 0
7.5 2.25 0
7.75 2.25 0
8 2.25 0
8.25 2.25 0
8.5 2.25 0
8.75 2.25 0
9 2.25 0
9.25 2.25 0
9.5 2.25 0
9.75 2.25 0
10 2.25 0
10.25 2.25 0
10.5 2.25 0
10.75 2.25 0
11 2.25 0
11.25 2.25 0
11.5 2.25 0
11.75 2.25 0
12 2.25 0
12.25 2.25 0
12.5 2.25 0
12.75 2.25 0
13 2.25 0
13.25 2.25 0
13.5 2.25 0
13.75 2.25 0
14 2.25 0
14.25 2.25 0
14.5 2.25 0
14.75 2.25 0
15 2.25 0
15.25 2.25 0
15.5 2.25 0
15.75 2.25 0
16 2.25 0
16.25 2.25 0
16.5 2.25 0
16.75 2.25 0
17 2.25 0
17.25 2.25 0
17.5 2.25 0
17.75 2.25 0
18 2.25 0
18.25 2.25 0
18.5 2.25 0
18.75 2.25 0
19 2.25 0
19.25 2.25 0
19.5 2.25 0
19.75 2.25 0
20 2.25 0
0 2.5 0
0.25 2.5 0
0.5 2.5 0
0.75 2.5 0
1 2.5 0
1.25 2.5 0
1.5 2.5 0
1.75 2.5 0
2 2.5 0
2.25 2.5 0
2.5 2.5 0
2.75 2.5 0
3 2.5 0
3.25 2.5 0
3.5 2.5 0
3.75 2.5 0
4 2.5 0
4.25 2.5 0
4.5 2.5 0
4.75 2.5 0
5 2.5 0
5.25 2.5 0
5.5 2.5 0
5.75 2.5 0
6 2.5 0
6.25 2.5 0
6.5 2.5 0
6.75 2.5 0
7 2.5 0
7.25 2.5 0
7.5 2.5 0
7.75 2.5 0
8 2.5 0
8.25 2.5 0
8.5 2.5 0
8.75 2.5 0
9 2.5 0
9.25 2.5 0
9.5 2.5 0
9.75 2.5 0
10 2.5 0
10.25 2.5 0
10.5 2.5 0
10.75 2.5 0
11 2.5 0
11.25 2.5 0
11.5 2.5 0
11.75 2.5 0
12 2.5 0
12.25 2.5 0
12.5 2.5 0
12.75 2.5 0
13 2.5 0
13.25 2.5 0
13.5 2.5 0
13.75 2.5 0
14 2.5 0
14.25 2.5 0
14.5 2.5 0
14.75 2.5 0
15 2.5 0
15.25 2.5 0
15.5 2.5 0
15.75 2.5 0
16 2.5 0
16.25 2.5 0
16.5 2.5 0
16.75 2.5 0
17 2.5 0
17.25 2.5 0
17.5 2.5 0
17.75 2.5 0
18 2.5 0
18.25 2.5 0
18.5 2.5 0
18.75 2.5 0
19 2.5 0
19.25 2.5 0
19.5 2.5 0
19.75 2.5 0
20 2.5 0
0 2.75 0
0.25 2.75 0
0.5 2.75 0
0.75 2.75 0
1 2.75 0
1.25 2.75 0
1.5 2.75 0
1.75 2.75 0
2 2.75 0
2.25 2.75 0
2.5 2.75 0
2.75 2.75 0
3 2.75 0
3.25 2.75 0
3.5 2.75 0
3.75 2.75 0
4 2.75 0
4.25 2.75 0
4.5 2.75 0
4.75 2.75 0
5 2.75 0
5.25 2.75 0
5.5 2.75 0
5.75 2.75 0
6 2.75 0
6.25 2.75 0
6.5 2.75 0
6.75 2.75 0
7 2.75 0
7.25 2.75 0
7.5 2.75 0
7.75 2.75 0
8 2.75 0
8.25 2.75 0
8.5 2.75 0
8.75 2.75 0
9 2.75 0
9.25 2.75 0
9.5 2.75 0
9.75 2.75 0
10 2.75 0
10.25 2.75 0
10.5 2.75 0
10.75 2.75 0
11 2.75 0
11.25 2.75 0
11.5 2.75 0
[...]
    <PointData>
      <DataArray type="Float64" NumberOfComponents="3" Name="Velocity" format="ascii">
1 0 0
1.00011 0 0
1.00033 0 0
1.00059 0 0
1.00082 0 0
1.00104 0 0
1.00129 0 0
1.00154 0 0
1.0018 0 0
1.00207 0 0
1.00234 0 0
1.00263 0 0
1.00292 0 0
1.00323 0 0
1.00355 0 0
1.00387 0 0
1.00421 0 0
1.00455 0 0
1.0049 0 0
1.00526 0 0
1.00561 0 0
1.00597 0 0
1.00633 0 0
1.00667 0 0
1.00701 0 0
1.00733 0 0
1.00763 0 0
1.00791 0 0
1.00816 0 0
1.00838 0 0
1.00856 0 0
1.00871 0 0
1.00881 0 0
1.00887 0 0
1.00889 0 0
1.00887 0 0
1.0088 0 0
1.00868 0 0
1.00853 0 0
1.00834 0 0
1.00811 0 0
1.00786 0 0
1.00758 0 0
1.00727 0 0
1.00695 0 0
1.00662 0 0
1.00627 0 0
1.00592 0 0
1.00557 0 0
1.00523 0 0
1.00489 0 0
1.00455 0 0
1.00423 0 0
1.00391 0 0
1.00361 0 0
1.00333 0 0
1.00306 0 0
1.0028 0 0
1.00256 0 0
1.00233 0 0
1.00212 0 0
1.00193 0 0
1.00174 0 0
1.00158 0 0
1.00142 0 0
1.00128 0 0
1.00115 0 0
1.00103 0 0
1.00093 0 0
1.00083 0 0
1.00075 0 0
1.00067 0 0
1.0006 0 0
1.00055 0 0
1.0005 0 0
1.00045 0 0
1.00042 0 0
1.00039 0 0
1.00037 0 0
1.00036 0 0
1.00036 0 0
1 0 0
1.00011 -0.000205544 0
1.00033 -0.000250628 0
1.00059 -0.000227895 0
1.00081 -0.000229991 0
1.00104 -0.00024187 0
1.00128 -0.000248485 0
1.00154 -0.00025376 0
1.0018 -0.000261619 0
1.00206 -0.000270954 0
1.00234 -0.000280661 0
1.00262 -0.000290714 0
1.00292 -0.000301089 0
1.00322 -0.000311504 0
1.00354 -0.000321678 0
1.00387 -0.000331284 0
1.0042 -0.000339992 0
1.00455 -0.000347438 0
1.0049 -0.000353257 0
1.00526 -0.000356948 0
1.00561 -0.000358008 0
1.00597 -0.000356166 0
1.00633 -0.000351147 0
1.00668 -0.000342483 0
1.00701 -0.000329705 0
1.00734 -0.000312682 0
1.00764 -0.00029128 0
1.00792 -0.00026578 0
1.00817 -0.000236464 0
1.0084 -0.000203313 0
1.00858 -0.000166308 0
1.00873 -0.000126177 0
1.00884 -8.36442e-05 0
1.0089 -3.97154e-05 0
1.00892 4.60517e-06 0
1.00889 4.87043e-05 0
1.00882 9.19691e-05 0
1.0087 0.000133675 0
1.00855 0.000173096 0
1.00835 0.000209441 0
1.00813 0.000241916 0
1.00787 0.000270302 0
1.00759 0.000294378 0
1.00728 0.000314095 0
1.00696 0.000329406 0
1.00662 0.000340373 0
1.00627 0.000347063 0
1.00592 0.000349878 0
1.00557 0.000349219 0
1.00522 0.000345439 0
1.00488 0.000338893 0
1.00455 0.000330005 0
1.00422 0.000319201 0
1.00391 0.00030687 0
1.00361 0.000293401 0
1.00332 0.000279061 0
1.00305 0.000264114 0
1.00279 0.000248846 0
1.00255 0.000233544 0
1.00232 0.000218323 0
1.00211 0.000203301 0
1.00192 0.000188616 0
1.00174 0.000174408 0
1.00157 0.000160706 0
1.00142 0.000147538 0
1.00127 0.000134937 0
1.00115 0.000122937 0
1.00103 0.000111519 0
1.00092 0.000100667 0
1.00083 9.03576e-05 0
1.00074 8.0571e-05 0
1.00067 7.12678e-05 0
1.0006 6.24086e-05 0
1.00054 5.39501e-05 0
1.00049 4.58488e-05 0
1.00045 3.80591e-05 0
1.00042 3.05354e-05 0
1.00039 2.32235e-05 0
1.00037 1.6069e-05 0
1.00036 9.04143e-06 0
1.00035 2.11042e-06 0
1 0 0
1.00011 -0.000409904 0
1.00033 -0.000499895 0
1.00058 -0.000454638 0
1.00081 -0.000458795 0
1.00103 -0.00048252 0
1.00127 -0.000495965 0
1.00153 -0.000506719 0
1.00178 -0.000522368 0
1.00205 -0.000541043 0
1.00232 -0.000560873 0
1.00261 -0.00058139 0
1.0029 -0.000602126 0
1.00321 -0.000622978 0
1.00353 -0.000643842 0
1.00385 -0.000663659 0
1.00419 -0.00068137 0
1.00454 -0.000696467 0
1.00489 -0.000708438 0
1.00525 -0.000716313 0
1.00562 -0.00071912 0
1.00598 -0.000715939 0
1.00634 -0.000705851 0
1.00669 -0.000688453 0
1.00704 -0.000663341 0
1.00737 -0.000629938 0
1.00768 -0.000587665 0
1.00796 -0.000536517 0
1.00822 -0.000476487 0
1.00845 -0.000408757 0
1.00864 -0.000334508 0
1.00879 -0.000254553 0
1.0089 -0.000169703 0
1.00896 -8.14246e-05 0
1.00898 8.81724e-06 0
1.00896 9.89507e-05 0
1.00888 0.000186904 0
1.00876 0.000271115 0
1.00861 0.000350019 0
1.00841 0.000422656 0
1.00817 0.000488064 0
1.00791 0.000545406 0
1.00762 0.000593849 0
1.00731 0.000633214 0
1.00698 0.000663324 0
1.00663 0.000684698 0
1.00628 0.000697854 0
1.00593 0.000703311 0
1.00557 0.000701593 0
1.00522 0.000693548 0
1.00487 0.000680023 0
1.00453 0.000661877 0
1.0042 0.000639969 0
1.00389 0.000614989 0
1.00359 0.000587628 0
1.0033 0.000558577 0
1.00303 0.000528525 0
1.00277 0.000497874 0
1.00253 0.000467021 0
1.0023 0.000436348 0
1.00209 0.000406233 0
1.0019 0.00037684 0
1.00172 0.000348333 0
1.00155 0.000320841 0
1.0014 0.000294494 0
1.00126 0.000269309 0
1.00113 0.000245304 0
1.00101 0.000222467 0
1.00091 0.000200787 0
1.00081 0.000180206 0
1.00073 0.000160666 0
1.00065 0.000142094 0
1.00059 0.000124418 0
1.00053 0.000107547 0
1.00048 9.13902e-05 0
1.00044 7.58575e-05 0
1.00041 6.08584e-05 0
1.00038 4.62836e-05 0
1.00036 3.2024e-05 0
1.00035 1.80181e-05 0
1.00034 4.20439e-06 0
1 0 0
1.00011 -0.000611939 0
1.00032 -0.000746361 0
1.00057 -0.000678918 0
1.0008 -0.000685265 0
1.00102 -0.000720887 0
1.00126 -0.000741268 0
1.00151 -0.000757694 0
1.00176 -0.000781451 0
1.00202 -0.000809803 0
1.0023 -0.000840012 0
1.00258 -0.000871341 0
1.00288 -0.000903049 0
1.00318 -0.000934999 0
1.0035 -0.000967053 0
1.00383 -0.000997652 0
1.00417 -0.00102523 0
1.00452 -0.00104893 0
1.00488 -0.00106787 0
1.00525 -0.00108068 0
1.00561 -0.00108599 0
1.00599 -0.00108231 0
1.00636 -0.00106814 0
1.00672 -0.00104278 0
1.00707 -0.00100554 0
1.00741 -0.000955663 0
1.00773 -0.00089241 0
1.00803 -0.000815533 0
1.0083 -0.000724785 0
1.00854 -0.000622023 0
1.00874 -0.000509105 0
1.00889 -0.000387454 0
1.00901 -0.000258494 0
1.00908 -0.000124267 0
1.0091 1.31842e-05 0
1.00907 0.000150608 0
1.00899 0.000284751 0
1.00887 0.00041309 0
1.0087 0.000533101 0
1.0085 0.000643376 0
1.00825 0.000742506 0
1.00798 0.000829203 0
1.00767 0.000902175 0
1.00735 0.000961205 0
1.00701 0.00100607 0
1.00665 0.00103759 0
1.00629 0.00105657 0
1.00593 0.00106384 0
1.00556 0.00106023 0
1.0052 0.0010471 0
1.00485 0.0010258 0
1.00451 0.000997595 0
1.00417 0.000963753 0
1.00385 0.000925357 0
1.00355 0.000883494 0
1.00326 0.000839197 0
1.00299 0.000793502 0
1.00273 0.000746993 0
1.00249 0.000700256 0
1.00226 0.000653872 0
1.00205 0.000608422 0
1.00186 0.000564126 0
1.00168 0.000521202 0
1.00152 0.000479852 0
1.00136 0.000440276 0
1.00123 0.000402484 0
1.0011 0.000366485 0
1.00098 0.000332263 0
1.00088 0.000299802 0
1.00079 0.000269008 0
1.0007 0.000239786 0
1.00063 0.000212026 0
1.00057 0.000185619 0
1.00051 0.000160426 0
1.00046 0.000136308 0
1.00042 0.000113129 0
1.00039 9.07521e-05 0
1.00036 6.90135e-05 0
1.00034 4.77486e-05 0
1.00033 2.68643e-05 0
1.00032 6.26763e-06 0
1 0 0
1.00011 -0.000810512 0
1.00032 -0.000988584 0
1.00056 -0.000899427 0
1.00078 -0.000908256 0
1.001 -0.000955908 0
1.00123 -0.00098322 0
1.00148 -0.0010055 0
1.00173 -0.00103807 0
1.00199 -0.00107677 0
1.00226 -0.00111746 0
1.00254 -0.00115988 0
1.00284 -0.00120379 0
1.00314 -0.00124814 0
1.00346 -0.00129187 0
1.0038 -0.00133379 0
1.00414 -0.00137268 0
1.00449 -0.00140667 0
1.00486 -0.00143386 0
1.00523 -0.00145262 0
1.00561 -0.00146128 0
1.006 -0.00145829 0
1.00638 -0.00144204 0
1.00675 -0.00141033 0
1.00712 -0.00136092 0
1.00748 -0.00129375 0
1.00782 -0.00120877 0
1.00813 -0.00110615 0
1.00841 -0.000986073 0
1.00866 -0.000848801 0
1.00888 -0.000694604 0
1.00905 -0.000527207 0
1.00917 -0.000350335 0
1.00924 -0.000167383 0
1.00926 1.8254e-05 0
1.00922 0.000203545 0
1.00914 0.000385455 0
1.00901 0.00056037 0
1.00884 0.000724672 0
1.00862 0.000875329 0
1.00836 0.00100931 0
1.00807 0.00112558 0
1.00775 0.00122312 0
1.00741 0.00130192 0
1.00705 0.00136196 0
1.00668 0.00140366 0
1.00631 0.00142742 0
1.00593 0.00143501 0
1.00555 0.00142825 0
1.00518 0.00140888 0
1.00482 0.00137863 0
1.00447 0.00133914 0
1.00413 0.001292 0
1.00381 0.00123898 0
1.0035 0.00118181 0
1.00321 0.00112157 0
1.00293 0.00105931 0
1.00267 0.000996115 0
1.00243 0.000933073 0
1.00221 0.000870695 0
1.002 0.000809496 0
1.00181 0.000749929 0
1.00163 0.000692445 0
1.00147 0.000637186 0
1.00132 0.000584293 0
1.00118 0.00053383 0
1.00106 0.000485864 0
1.00095 0.000440328 0
1.00084 0.000397155 0
1.00075 0.000356229 0
1.00067 0.000317435 0
1.0006 0.000280614 0
1.00054 0.000245605 0
1.00048 0.000212224 0
1.00043 0.000180286 0
1.00039 0.000149606 0
1.00036 0.00012 0
1.00034 9.12463e-05 0
1.00032 6.31263e-05 0
1.00031 3.55145e-05 0
1.0003 8.28588e-06 0
1 0 0
1.00011 -0.0010043 0
1.00031 -0.0012251 0
1.00055 -0.00111496 0
1.00076 -0.0011264 0
1.00097 -0.0011861 0
1.0012 -0.00122072 0
1.00145 -0.00124934 0
1.00169 -0.00129104 0
1.00195 -0.00134056 0
1.00221 -0.00139262 0
1.0025 -0.00144711 0
1.00279 -0.00150389 0
1.00309 -0.00156152 0
1.00341 -0.00161856 0
1.00375 -0.00167352 0
1.0041 -0.00172494 0
1.00446 -0.00177053 0
1.00483 -0.001808 0
1.00522 -0.00183493 0
1.00561 -0.00184893 0
1.006 -0.0018482 0
1.0064 -0.00183093 0
1.0068 -0.00179398 0
1.00719 -0.00173421 0
1.00757 -0.00165124 0
1.00792 -0.00154472 0
1.00826 -0.00141533 0
1.00856 -0.00126376 0
1.00883 -0.00108974 0
1.00906 -0.000892968 0
1.00924 -0.000678251 0
1.00937 -0.000450376 0
1.00945 -0.000214499 0
1.00947 2.42284e-05 0
1.00944 0.000262158 0
1.00935 0.000495643 0
1.0092 0.00072008 0
1.00901 0.000930865 0
1.00878 0.00112367 0
1.0085 0.00129418 0
1.00819 0.00144133 0
1.00785 0.00156405 0
1.00749 0.00166242 0
1.00711 0.00173653 0
1.00672 0.00178692 0
1.00632 0.00181414 0
1.00593 0.0018207 0
1.00554 0.00180917 0
1.00515 0.00178174 0
1.00478 0.0017406 0
1.00442 0.00168797 0
1.00407 0.00162605 0
1.00374 0.00155704 0
1.00343 0.00148314 0
1.00314 0.00140565 0
1.00286 0.0013259 0
1.0026 0.00124527 0
1.00236 0.00116518 0
1.00214 0.00108618 0
1.00193 0.00100883 0
1.00174 0.000933711 0
1.00157 0.000861432 0
1.00141 0.0007921 0
1.00126 0.000725823 0
1.00113 0.000662691 0
1.00101 0.000602794 0
1.0009 0.000546015 0
1.0008 0.000492238 0
1.00071 0.000441316 0
1.00063 0.000393103 0
1.00056 0.000347387 0
1.0005 0.000303954 0
1.00044 0.000262572 0
1.0004 0.000223007 0
1.00036 0.000185022 0
1.00033 0.000148384 0
1.0003 0.000112815 0
1.00029 7.80409e-05 0
1.00027 4.3903e-05 0
1.00027 1.0243e-05 0
1 0 0
1.0001 -0.00119197 0
1.0003 -0.00145446 0
1.00053 -0.0013243 0
1.00073 -0.00133834 0
1.00094 -0.00140999 0
1.00116 -0.00145268 0
1.0014 -0.0014884 0
1.00164 -0.00153917 0
1.00189 -0.00159976 0
1.00215 -0.00166494 0
1.00243 -0.00173316 0
1.00272 -0.0018029 0
1.00303 -0.00187426 0
1.00335 -0.00194734 0
1.00369 -0.00201829 0
1.00404 -0.00208322 0
1.00441 -0.00214134 0
1.00479 -0.00219183 0
1.00519 -0.00223043 0
1.0056 -0.00225287 0
1.00601 -0.00225638 0
1.00643 -0.00223817 0
1.00685 -0.00219664 0
1.00726 -0.00213014 0
1.00766 -0.00203518 0
1.00805 -0.00190823 0
1.00842 -0.00175002 0
1.00875 -0.00156126 0
1.00904 -0.00134547 0
1.00928 -0.00110616 0
1.00948 -0.000845025 0
1.00963 -0.000563767 0
1.00972 -0.000269339 0
1.00975 3.1309e-05 0
1.00971 0.000330845 0
1.00961 0.00062194 0
1.00945 0.000899345 0
1.00924 0.00115781 0
1.00898 0.00139357 0
1.00868 0.00160284 0
1.00834 0.00178323 0
1.00797 0.00193231 0
1.00758 0.00204978 0
1.00717 0.00213531 0
1.00676 0.00219138 0
1.00634 0.00222048 0
1.00592 0.00222479 0
1.00551 0.00220651 0
1.00511 0.00216853 0
1.00472 0.00211377 0
1.00435 0.00204556 0
1.004 0.00196723 0
1.00366 0.00188073 0
1.00335 0.00178802 0
1.00305 0.0016914 0
1.00277 0.0015932 0
1.00251 0.00149448 0
1.00227 0.00139629 0
1.00205 0.0012997 0
1.00185 0.00120579 0
1.00166 0.00111494 0
1.00149 0.00102753 0
1.00133 0.000943847 0
1.00119 0.000864146 0
1.00106 0.000788413 0
1.00094 0.000716628 0
1.00083 0.000648677 0
1.00074 0.000584445 0
1.00065 0.000523719 0
1.00058 0.000466282 0
1.00051 0.000411877 0
1.00045 0.000360248 0
1.0004 0.000311103 0
1.00036 0.000264152 0
1.00032 0.000219108 0
1.00029 0.000175686 0
1.00027 0.000133553 0
1.00025 9.23765e-05 0
1.00024 5.1964e-05 0
1.00023 1.2123e-05 0
1 0 0
1.0001 -0.0013723 0
1.00028 -0.00167495 0
1.0005 -0.00152582 0
1.0007 -0.00154277 0
1.0009 -0.00162643 0
1.00112 -0.00167742 0
1.00135 -0.00172077 0
1.00158 -0.0017815 0
1.00182 -0.00185407 0
1.00208 -0.00193291 0
1.00235 -0.00201581 0
1.00264 -0.00210051 0
1.00295 -0.00218766 0
1.00327 -0.00227791 0
1.00361 -0.00236638 0
1.00397 -0.0024482 0
1.00435 -0.0025224 0
1.00474 -0.00258801 0
1.00515 -0.00264026 0
1.00558 -0.00267438 0
1.00602 -0.00268598 0
1.00646 -0.00267064 0
1.00691 -0.00262721 0
1.00735 -0.0025545 0
1.00778 -0.00244754 0
1.00821 -0.00230137 0
1.00861 -0.00211544 0
1.00897 -0.00188924 0
1.00929 -0.00162903 0
1.00956 -0.00134111 0
1.00978 -0.00102684 0
1.00994 -0.000687618 0
1.01004 -0.000330755 0
1.01008 3.6419e-05 0
1.01004 0.000403015 0
1.00993 0.000758141 0
1.00976 0.001095 0
1.00952 0.00140678 0
1.00923 0.00168992 0
1.0089 0.00194084 0
1.00853 0.00215594 0
1.00812 0.00233161 0
1.00769 0.00246767 0
1.00725 0.00256397 0
1.0068 0.00262437 0
1.00635 0.00265273 0
1.00591 0.00265148 0
1.00548 0.00262305 0
1.00506 0.00257138 0
1.00465 0.0025004 0
1.00427 0.00241412 0
1.00391 0.0023165 0
1.00356 0.00220986 0
1.00324 0.00209648 0
1.00294 0.00197924 0
1.00266 0.001861 0
1.00241 0.00174276 0
1.00217 0.00162555 0
1.00195 0.00151072 0
1.00175 0.00139964 0
1.00156 0.00129258 0
1.0014 0.0011898 0
1.00124 0.00109164 0
1.00111 0.000998468 0
1.00098 0.000910154 0
1.00087 0.000826583 0
1.00076 0.00074762 0
1.00067 0.000673131 0
1.00059 0.000602826 0
1.00052 0.000536416 0
1.00045 0.000473592 0
1.0004 0.000414049 0
1.00035 0.000357433 0
1.00031 0.000303392 0
1.00027 0.000251589 0
1.00024 0.000201685 0
1.00022 0.000153291 0
1.0002 0.000106015 0
1.00019 5.96313e-05 0
1.00019 1.39107e-05 0
1 0 0
1.00009 -0.00154402 0
1.00027 -0.00188486 0
1.00048 -0.00171788 0
1.00067 -0.00173841 0
1.00085 -0.00183428 0
1.00106 -0.0018933 0
1.00128 -0.00194454 0
1.00151 -0.00201707 0
1.00174 -0.00210316 0
1.00199 -0.00219508 0
1.00226 -0.00229284 0
1.00255 -0.00239642 0
1.00285 -0.00250305 0
1.00317 -0.0026099 0
1.00352 -0.00271605 0
1.00388 -0.00282052 0
1.00427 -0.002917 0
1.00468 -0.00299918 0
1.00511 -0.00306558 0
1.00555 -0.00311475 0
1.00601 -0.00314014 0
1.00648 -0.00313521 0
1.00697 -0.00309462 0
1.00745 -0.00301308 0
1.00793 -0.00289034 0
1.00838 -0.00272621 0
1.00881 -0.00251683 0
1.00922 -0.00225835 0
1.00959 -0.00195343 0
1.00991 -0.00160473 0
1.01016 -0.00122302 0
1.01033 -0.000819039 0
1.01043 -0.000397602 0
1.01046 3.64816e-05 0
1.01041 0.000472075 0
1.01029 0.000898044 0
1.0101 0.00130387 0
1.00984 0.00167904 0
1.00952 0.00201762 0
1.00914 0.00231371 0
1.00872 0.00256411 0
1.00828 0.00276561 0
1.00782 0.00291979 0
1.00733 0.00302821 0
1.00685 0.00309323 0
1.00636 0.00311716 0
1.00589 0.00310496 0
1.00543 0.00306157 0
1.00499 0.00299236 0
1.00456 0.00290274 0
1.00417 0.00279584 0
1.00379 0.00267482 0
1.00344 0.00254421 0
1.00311 0.00240855 0
1.00281 0.00226958 0
1.00253 0.00212903 0
1.00228 0.00198913 0
1.00204 0.00185211 0
1.00183 0.00171871 0
1.00163 0.00158966 0
1.00145 0.00146562 0
1.00129 0.00134728 0
1.00114 0.00123471 0
1.00101 0.00112799 0
1.00089 0.00102707 0
1.00078 0.000931876 0
1.00068 0.000842152 0
1.00059 0.000757647 0
1.00052 0.000678026 0
1.00045 0.000602951 0
1.00039 0.000532042 0
1.00033 0.000464922 0
1.00029 0.000401179 0
1.00025 0.000340399 0
1.00022 0.000282191 0
1.00019 0.00022616 0
1.00017 0.00017186 0
1.00015 0.00011884 0
1.00015 6.68386e-05 0
1.00014 1.55912e-05 0
1 0 0
1.00009 -0.00170554 0
1.00025 -0.00208252 0
1.00045 -0.0018991 0
1.00062 -0.00192342 0
1.0008 -0.00203142 0
1.001 -0.00209904 0
1.00121 -0.00215889 0
1.00142 -0.00224359 0
1.00165 -0.00234394 0
1.00189 -0.00245074 0
1.00215 -0.00256513 0
1.00243 -0.00268829 0
1.00273 -0.00281584 0
1.00306 -0.0029434 0
1.0034 -0.00307126 0
1.00377 -0.00319967 0
1.00416 -0.0033205 0
1.00459 -0.00342558 0
1.00504 -0.00351301 0
1.00551 -0.00358085 0
1.00599 -0.00362278 0
1.0065 -0.00363248 0
1.00702 -0.00360017 0
1.00755 -0.00351609 0
1.00808 -0.00338166 0
1.00858 -0.00319827 0
1.00906 -0.00296252 0
1.00952 -0.00267099 0
1.00994 -0.00232094 0
1.01031 -0.00190964 0
1.0106 -0.00145397 0
1.0108 -0.000970784 0
1.01091 -0.000468311 0
1.01093 4.5236e-05 0
1.01088 0.000559628 0
1.01074 0.00106464 0
1.01052 0.00154673 0
1.01022 0.00199239 0
1.00986 0.00239187 0
1.00943 0.00273543 0
1.00896 0.00302152 0
1.00846 0.00324863 0
1.00795 0.00341938 0
1.00742 0.00353641 0
1.00689 0.00360152 0
1.00636 0.00361652 0
1.00585 0.00358903 0
1.00536 0.00352667 0
1.0049 0.00343561 0
1.00445 0.00332204 0
1.00404 0.00318964 0
1.00365 0.00304209 0
1.0033 0.002885 0
1.00296 0.00272398 0
1.00266 0.00256046 0
1.00238 0.00239588 0
1.00213 0.00223312 0
1.0019 0.00207504 0
1.00169 0.00192202 0
1.00149 0.0017744 0
1.00132 0.00163307 0
1.00117 0.00149894 0
1.00102 0.00137184 0
1.0009 0.00125164 0
1.00078 0.00113827 0
1.00068 0.00103167 0
1.00059 0.000931456 0
1.00051 0.000837256 0
1.00044 0.000748672 0
1.00037 0.000665309 0
1.00032 0.000586709 0
1.00027 0.000512414 0
1.00022 0.000441949 0
1.00019 0.00037484 0
1.00016 0.000310637 0
1.00013 0.00024889 0
1.00011 0.000189091 0
1.0001 0.000130734 0
1.00009 7.35205e-05 0
1.00009 1.71488e-05 0
1 0 0
1.00008 -0.00185523 0
1.00023 -0.00226624 0
1.00041 -0.00206812 0
1.00058 -0.00209596 0
1.00074 -0.00221571 0
1.00092 -0.00229335 0
1.00112 -0.002363 0
1.00132 -0.0024588 0
1.00154 -0.00257332 0
1.00177 -0.00269918 0
1.00202 -0.00283358 0
1.0023 -0.00297375 0
1.00259 -0.00312145 0
1.00291 -0.00327846 0
1.00326 -0.00343595 0
1.00364 -0.00358512 0
1.00404 -0.00372822 0
1.00447 -0.00386747 0
1.00494 -0.00398916 0
1.00544 -0.00407954 0
1.00597 -0.00413778 0
1.00651 -0.00416306 0
1.00707 -0.00414514 0
1.00764 -0.00407378 0
1.00823 -0.00393955 0
1.00882 -0.00373304 0
1.00938 -0.00346084 0
1.00988 -0.00312954 0
1.01033 -0.00273384 0
1.01073 -0.00226843 0
1.01107 -0.00174009 0
1.01134 -0.0011556 0
1.01151 -0.000541318 0
1.01156 7.64218e-05 0
1.01149 0.000687276 0
1.01132 0.0012809 0
1.01105 0.00184435 0
1.0107 0.00236466 0
1.01027 0.00282785 0
1.00979 0.00321995 0
1.00926 0.00354198 0
1.00869 0.00379498 0
1.00809 0.00397971 0
1.0075 0.00409692 0
1.00692 0.0041528 0
1.00635 0.00415353 0
1.0058 0.00410747 0
1.00527 0.00402294 0
1.00477 0.00390522 0
1.00431 0.00375957 0
1.00388 0.00359442 0
1.00349 0.00341823 0
1.00312 0.00323344 0
1.00279 0.00304251 0
1.00248 0.00284992 0
1.00221 0.00266013 0
1.00196 0.00247425 0
1.00173 0.00229341 0
1.00153 0.002119 0
1.00134 0.00195244 0
1.00118 0.00179395 0
1.00103 0.00164374 0
1.00089 0.00150186 0
1.00077 0.00136832 0
1.00067 0.00124284 0
1.00057 0.00112511 0
1.00049 0.00101472 0
1.00041 0.000911219 0
1.00035 0.000814117 0
1.00029 0.000722913 0
1.00024 0.000637074 0
1.00019 0.000556068 0
1.00015 0.000479351 0
1.00012 0.000406384 0
1.00009 0.000336654 0
1.00007 0.000269652 0
1.00005 0.000204816 0
1.00004 0.000141582 0
1.00003 7.96118e-05 0
1.00003 1.85679e-05 0
1 0 0
1.00007 -0.00199168 0
1.00021 -0.00243396 0
1.00037 -0.0022229 0
1.00052 -0.00225457 0
1.00067 -0.00238585 0
1.00084 -0.00247364 0
1.00102 -0.00255367 0
1.00121 -0.00266169 0
1.00141 -0.00279141 0
1.00163 -0.00293654 0
1.00187 -0.00309207 0
1.00214 -0.00325295 0
1.00243 -0.00342417 0
1.00274 -0.00361074 0
1.00308 -0.00379971 0
1.00347 -0.00397818 0
1.00389 -0.00415173 0
1.00433 -0.00432595 0
1.00481 -0.00448385 0
1.00534 -0.00460844 0
1.00591 -0.00469568 0
1.0065 -0.00474152 0
1.00711 -0.00474053 0
1.00774 -0.00468727 0
1.00839 -0.00456152 0
1.00907 -0.00434305 0
1.00972 -0.00403887 0
1.0103 -0.00365597 0
1.01081 -0.00319759 0
1.01126 -0.00266695 0
1.01164 -0.00206166 0
1.01196 -0.00137934 0
1.01217 -0.000651979 0
1.01225 8.8422e-05 0
1.01218 0.000820805 0
1.01197 0.00152411 0
1.01165 0.00218431 0
1.01123 0.00278735 0
1.01074 0.00332029 0
1.01019 0.00377017 0
1.00958 0.00413545 0
1.00892 0.00441454 0
1.00824 0.00460885 0
1.00758 0.00471977 0
1.00694 0.00475919 0
1.00631 0.004739 0
1.00572 0.00466707 0
1.00515 0.00455127 0
1.00462 0.00439857 0
1.00414 0.00421591 0
1.0037 0.00401393 0
1.00329 0.00380326 0
1.00291 0.00358533 0
1.00258 0.00336156 0
1.00228 0.00313797 0
1.002 0.00292062 0
1.00176 0.00270954 0
1.00154 0.0025048 0
1.00134 0.00230841 0
1.00117 0.00212239 0
1.00101 0.00194639 0
1.00087 0.00178007 0
1.00075 0.00162353 0
1.00064 0.0014769 0
1.00054 0.00133964 0
1.00045 0.00121119 0
1.00038 0.00109107 0
1.00031 0.000978766 0
1.00025 0.000873667 0
1.00019 0.000775151 0