<?xml version="1.0"?>
<VTKFile type="UnstructuredGrid">
  <UnstructuredGrid>
  <Piece NumberOfPoints="961"  NumberOfCells="225">
    <Points>
      <DataArray type="Float64" NumberOfComponents="3" format="ascii">
0 0 0
0.0333333 0 0
0.0666667 0 0
0.1 0 0
0.133333 0 0
0.166667 0 0
0.2 0 0
0.233333 0 0
0.266667 0 0
0.3 0 0
0.333333 0 0
0.366667 0 0
0.4 0 0
0.433333 0 0
0.466667 0 0
0.5 0 0
0.533333 0 0
0.566667 0 0
0.6 0 0
0.633333 0 0
0.666667 0 0
0.7 0 0
0.733333 0 0
0.766667 0 0
0.8 0 0
0.833333 0 0
0.866667 0 0
0.9 0 0
0.933333 0 0
0.966667 0 0
1 0 0
0 0.0333333 0
0.0333333 0.0333333 0
0.0666667 0.0333333 0
0.1 0.0333333 0
0.133333 0.0333333 0
0.166667 0.0333333 0
0.2 0.0333333 0
0.233333 0.0333333 0
0.266667 0.0333333 0
0.3 0.0333333 0
0.333333 0.0333333 0
0.366667 0.0333333 0
0.4 0.0333333 0
0.433333 0.0333333 0
0.466667 0.0333333 0
0.5 0.0333333 0
0.533333 0.0333333 0
0.566667 0.0333333 0
0.6 0.0333333 0
0.633333 0.0333333 0
0.666667 0.0333333 0
0.7 0.0333333 0
0.733333 0.0333333 0
0.766667 0.0333333 0
0.8 0.0333333 0
0.833333 0.0333333 0
0.866667 0.0333333 0
0.9 0.0333333 0
0.933333 0.0333333 0
0.966667 0.0333333 0
1 0.0333333 0
0 0.0666667 0
0.0333333 0.0666667 0
0.0666667 0.0666667 0
0.1 0.0666667 0
0.133333 0.0666667 0
0.166667 0.0666667 0
0.2 0.0666667 0
0.233333 0.0666667 0
0.266667 0.0666667 0
0.3 0.0666667 0
0.333333 0.0666667 0
0.366667 0.0666667 0
0.4 0.0666667 0
0.433333 0.0666667 0
0.466667 0.0666667 0
0.5 0.0666667 0
0.533333 0.0666667 0
0.566667 0.0666667 0
0.6 0.0666667 0
0.633333 0.0666667 0
0.666667 0.0666667 0
0.7 0.0666667 0
0.733333 0.0666667 0
0.766667 0.0666667 0
0.8 0.0666667 0
0.833333 0.0666667 0
0.866667 0.0666667 0
0.9 0.0666667 0
0.933333 0.0666667 0
0.966667 0.0666667 0
1 0.0666667 0
0 0.1 0
0.0333333 0.1 0
0.0666667 0.1 0
0.1 0.1 0
0.133333 0.1 0
0.166667 0.1 0
0.2 0.1 0
0.233333 0.1 0
0.266667 0.1 0
0.3 0.1 0
0.333333 0.1 0
0.366667 0.1 0
0.4 0.1 0
0.433333 0.1 0
0.466667 0.1 0
0.5 0.1 0
0.533333 0.1 0
0.566667 0.1 0
0.6 0.1 0
0.633333 0.1 0
0.666667 0.1 0
0.7 0.1 0
0.733333 0.1 0
0.766667 0.1 0
0.8 0.1 0
0.833333 0.1 0
0.866667 0.1 0
0.9 0.1 0
0.933333 0.1 0
0.966667 0.1 0
1 0.1 0
0 0.133333 0
0.0333333 0.133333 0
0.0666667 0.133333 0
0.1 0.133333 0
0.133333 0.133333 0
0.166667 0.133333 0
0.2 0.133333 0
0.233333 0.133333 0
0.266667 0.133333 0
0.3 0.133333 0
0.333333 0.133333 0
0.366667 0.133333 0
0.4 0.133333 0
0.433333 0.133333 0
0.466667 0.133333 0
0.5 0.133333 0
0.533333 0.133333 0
0.566667 0.133333 0
0.6 0.133333 0
0.633333 0.133333 0
0.666667 0.133333 0
0.7 0.133333 0
0.733333 0.133333 0
0.766667 0.133333 0
0.8 0.133333 0
0.833333 0.133333 0
0.866667 0.133333 0
0.9 0.133333 0
0.933333 0.133333 0
0.966667 0.133333 0
1 0.133333 0
0 0.166667 0
0.0333333 0.166667 0
0.0666667 0.166667 0
0.1 0.166667 0
0.133333 0.166667 0
0.166667 0.166667 0
0.2 0.166667 0
0.233333 0.166667 0
0.266667 0.166667 0
0.3 0.166667 0
0.333333 0.166667 0
0.366667 0.166667 0
0.4 0.166667 0
0.433333 0.166667 0
0.466667 0.166667 0
0.5 0.166667 0
0.533333 0.166667 0
0.566667 0.166667 0
0.6 0.166667 0
0.633333 0.166667 0
0.666667 0.166667 0
0.7 0.166667 0
0.733333 0.166667 0
0.766667 0.166667 0
0.8 0.166667 0
0.833333 0.166667 0
0.866667 0.166667 0
0.9 0.166667 0
0.933333 0.166667 0
0.966667 0.166667 0
1 0.166667 0
0 0.2 0
0.0333333 0.2 0
0.0666667 0.2 0
0.1 0.2 0
0.133333 0.2 0
0.166667 0.2 0
0.2 0.2 0
0.233333 0.2 0
0.266667 0.2 0
0.3 0.2 0
0.333333 0.2 0
0.366667 0.2 0
0.4 0.2 0
0.433333 0.2 0
0.466667 0.2 0
0.5 0.2 0
0.533333 0.2 0
0.566667 0.2 0
0.6 0.2 0
0.633333 0.2 0
0.666667 0.2 0
0.7 0.2 0
0.733333 0.2 0
0.766667 0.2 0
0.8 0.2 0
0.833333 0.2 0
0.866667 0.2 0
0.9 0.2 0
0.933333 0.2 0
0.966667 0.2 0
1 0.2 0
0 0.233333 0
0.0333333 0.233333 0
0.0666667 0.233333 0
0.1 0.233333 0
0.133333 0.233333 0
0.166667 0.233333 0
0.2 0.233333 0
0.233333 0.233333 0
0.266667 0.233333 0
0.3 0.233333 0
0.333333 0.233333 0
0.366667 0.233333 0
0.4 0.233333 0
0.433333 0.233333 0
0.466667 0.233333 0
0.5 0.233333 0
0.533333 0.233333 0
0.566667 0.233333 0
0.6 0.233333 0
0.633333 0.233333 0
0.666667 0.233333 0
0.7 0.233333 0
0.733333 0.233333 0
0.766667 0.233333 0
0.8 0.233333 0
0.833333 0.233333 0
0.866667 0.233333 0
0.9 0.233333 0
0.933333 0.233333 0
0.966667 0.233333 0
1 0.233333 0
0 0.266667 0
0.0333333 0.266667 0
0.0666667 0.266667 0
0.1 0.266667 0
0.133333 0.266667 0
0.166667 0.266667 0
0.2 0.266667 0
0.233333 0.266667 0
0.266667 0.266667 0
0.3 0.266667 0
0.333333 0.266667 0
0.366667 0.266667 0
0.4 0.266667 0
0.433333 0.266667 0
0.466667 0.266667 0
0.5 0.266667 0
0.533333 0.266667 0
0.566667 0.266667 0
0.6 0.266667 0
0.633333 0.266667 0
0.666667 0.266667 0
0.7 0.266667 0
0.733333 0.266667 0
0.766667 0.266667 0
0.8 0.266667 0
0.833333 0.266667 0
0.866667 0.266667 0
0.9 0.266667 0
0.933333 0.266667 0
0.966667 0.266667 0
1 0.266667 0
0 0.3 0
0.0333333 0.3 0
0.0666667 0.3 0
0.1 0.3 0
0.133333 0.3 0
0.166667 0.3 0
0.2 0.3 0
0.233333 0.3 0
0.266667 0.3 0
0.3 0.3 0
0.333333 0.3 0
0.366667 0.3 0
0.4 0.3 0
0.433333 0.3 0
0.466667 0.3 0
0.5 0.3 0
0.533333 0.3 0
0.566667 0.3 0
0.6 0.3 0
0.633333 0.3 0
0.666667 0.3 0
0.7 0.3 0
0.733333 0.3 0
0.766667 0.3 0
0.8 0.3 0
0.833333 0.3 0
0.866667 0.3 0
0.9 0.3 0
0.933333 0.3 0
0.966667 0.3 0
1 0.3 0
0 0.333333 0
0.0333333 0.333333 0
0.0666667 0.333333 0
0.1 0.333333 0
0.133333 0.333333 0
0.166667 0.333333 0
0.2 0.333333 0
0.233333 0.333333 0
0.266667 0.333333 0
0.3 0.333333 0
0.333333 0.333333 0
0.366667 0.333333 0
0.4 0.333333 0
0.433333 0.333333 0
0.466667 0.333333 0
0.5 0.333333 0
0.533333 0.333333 0
0.566667 0.333333 0
0.6 0.333333 0
0.633333 0.333333 0
0.666667 0.333333 0
0.7 0.333333 0
0.733333 0.333333 0
0.766667 0.333333 0
0.8 0.333333 0
0.833333 0.333333 0
0.866667 0.333333 0
0.9 0.333333 0
0.933333 0.333333 0
0.966667 0.333333 0
1 0.333333 0
0 0.366667 0
0.0333333 0.366667 0
0.0666667 0.366667 0
0.1 0.366667 0
0.133333 0.366667 0
0.166667 0.366667 0
0.2 0.366667 0
0.233333 0.366667 0
0.266667 0.366667 0
0.3 0.366667 0
0.333333 0.366667 0
0.366667 0.366667 0
0.4 0.366667 0
0.433333 0.366667 0
0.466667 0.366667 0
0.5 0.366667 0
0.533333 0.366667 0
0.566667 0.366667 0
0.6 0.366667 0
0.633333 0.366667 0
0.666667 0.366667 0
0.7 0.366667 0
0.733333 0.366667 0
0.766667 0.366667 0
0.8 0.366667 0
0.833333 0.366667 0
0.866667 0.366667 0
0.9 0.366667 0
0.933333 0.366667 0
0.966667 0.366667 0
1 0.366667 0
0 0.4 0
0.0333333 0.4 0
0.0666667 0.4 0
0.1 0.4 0
0.133333 0.4 0
0.166667 0.4 0
0.2 0.4 0
0.233333 0.4 0
0.266667 0.4 0
0.3 0.4 0
0.333333 0.4 0
0.366667 0.4 0
0.4 0.4 0
0.433333 0.4 0
0.466667 0.4 0
0.5 0.4 0
0.533333 0.4 0
0.566667 0.4 0
0.6 0.4 0
0.633333 0.4 0
0.666667 0.4 0
0.7 0.4 0
0.733333 0.4 0
0.766667 0.4 0
0.8 0.4 0
0.833333 0.4 0
0.866667 0.4 0
0.9 0.4 0
0.933333 0.4 0
0.966667 0.4 0
1 0.4 0
0 0.433333 0
0.0333333 0.433333 0
0.0666667 0.433333 0
0.1 0.433333 0
0.133333 0.433333 0
0.166667 0.433333 0
0.2 0.433333 0
0.233333 0.433333 0
0.266667 0.433333 0
0.3 0.433333 0
0.333333 0.433333 0
0.366667 0.433333 0
0.4 0.433333 0
0.433333 0.433333 0
0.466667 0.433333 0
0.5 0.433333 0
0.533333 0.433333 0
0.566667 0.433333 0
0.6 0.433333 0
0.633333 0.433333 0
0.666667 0.433333 0
0.7 0.433333 0
0.733333 0.433333 0
0.766667 0.433333 0
0.8 0.433333 0
0.833333 0.433333 0
0.866667 0.433333 0
0.9 0.433333 0
0.933333 0.433333 0
0.966667 0.433333 0
1 0.433333 0
0 0.466667 0
0.0333333 0.466667 0
0.0666667 0.466667 0
0.1 0.466667 0
0.133333 0.466667 0
0.166667 0.466667 0
0.2 0.466667 0
0.233333 0.466667 0
0.266667 0.466667 0
0.3 0.466667 0
0.333333 0.466667 0
0.366667 0.466667 0
0.4 0.466667 0
0.433333 0.466667 0
0.466667 0.466667 0
0.5 0.466667 0
0.533333 0.466667 0
0.566667 0.466667 0
0.6 0.466667 0
0.633333 0.466667 0
0.666667 0.466667 0
0.7 0.466667 0
0.733333 0.466667 0
0.766667 0.466667 0
0.8 0.466667 0
0.833333 0.466667 0
0.866667 0.466667 0
0.9 0.466667 0
0.933333 0.466667 0
0.966667 0.466667 0
1 0.466667 0
0 0.5 0
0.0333333 0.5 0
0.0666667 0.5 0
0.1 0.5 0
0.133333 0.5 0
0.166667 0.5 0
0.2 0.5 0
0.233333 0.5 0
0.266667 0.5 0
0.3 0.5 0
0.333333 0.5 0
0.366667 0.5 0
0.4 0.5 0
0.433333 0.5 0
0.466667 0.5 0
0.5 0.5 0
0.533333 0.5 0
0.566667 0.5 0
0.6 0.5 0
0.633333 0.5 0
0.666667 0.5 0
0.7 0.5 0
0.733333 0.5 0
0.766667 0.5 0
0.8 0.5 0
0.833333 0.5 0
0.866667 0.5 0
0.9 0.5 0
0.933333 0.5 0
0.966667 0.5 0
1 0.5 0
0 0.533333 0
0.0333333 0.533333 0
0.0666667 0.533333 0
0.1 0.533333 0
0.133333 0.533333 0
0.166667 0.533333 0
0.2 0.533333 0
0.233333 0.533333 0
0.266667 0.533333 0
0.3 0.533333 0
0.333333 0.533333 0
0.366667 0.533333 0
0.4 0.533333 0
0.433333 0.533333 0
0.466667 0.533333 0
0.5 0.533333 0
0.533333 0.533333 0
0.566667 0.533333 0
0.6 0.533333 0
0.633333 0.533333 0
0.666667 0.533333 0
0.7 0.533333 0
0.733333 0.533333 0
0.766667 0.533333 0
0.8 0.533333 0
0.833333 0.533333 0
0.866667 0.533333 0
0.9 0.533333 0
0.933333 0.533333 0
0.966667 0.533333 0
1 0.533333 0
0 0.566667 0
0.0333333 0.566667 0
0.0666667 0.566667 0
0.1 0.566667 0
0.133333 0.566667 0
0.166667 0.566667 0
0.2 0.566667 0
0.233333 0.566667 0
0.266667 0.566667 0
0.3 0.566667 0
0.333333 0.566667 0
0.366667 0.566667 0
0.4 0.566667 0
0.433333 0.566667 0
0.466667 0.566667 0
0.5 0.566667 0
0.533333 0.566667 0
0.566667 0.566667 0
0.6 0.566667 0
0.633333 0.566667 0
0.666667 0.566667 0
0.7 0.566667 0
0.733333 0.566667 0
0.766667 0.566667 0
0.8 0.566667 0
0.833333 0.566667 0
0.866667 0.566667 0
0.9 0.566667 0
0.933333 0.566667 0
0.966667 0.566667 0
1 0.566667 0
0 0.6 0
0.0333333 0.6 0
0.0666667 0.6 0
0.1 0.6 0
0.133333 0.6 0
0.166667 0.6 0
0.2 0.6 0
0.233333 0.6 0
0.266667 0.6 0
0.3 0.6 0
0.333333 0.6 0
0.366667 0.6 0
0.4 0.6 0
0.433333 0.6 0
0.466667 0.6 0
0.5 0.6 0
0.533333 0.6 0
0.566667 0.6 0
0.6 0.6 0
0.633333 0.6 0
0.666667 0.6 0
0.7 0.6 0
0.733333 0.6 0
0.766667 0.6 0
0.8 0.6 0
0.833333 0.6 0
0.866667 0.6 0
0.9 0.6 0
0.933333 0.6 0
0.966667 0.6 0
1 0.6 0
0 0.633333 0
0.0333333 0.633333 0
0.0666667 0.633333 0
0.1 0.633333 0
0.133333 0.633333 0
0.166667 0.633333 0
0.2 0.633333 0
0.233333 0.633333 0
0.266667 0.633333 0
[...]
    <PointData>
      <DataArray type="Float64" NumberOfComponents="3" Name="Velocity" format="ascii">
0 0 0
0 0 0
0 0 0
0 0 0
0 0 0
0 0 0
0 0 0
0 0 0
0 0 0
0 0 0
0 0 0
0 0 0
0 0 0
0 0 0
0 0 0
0 0 0
0 0 0
0 0 0
0 0 0
0 0 0
0 0 0
0 0 0
0 0 0
0 0 0
0 0 0
0 0 0
0 0 0
0 0 0
0 0 0
0 0 0
0 0 0
0 0 0
-0.000496336 0.000449247 0
-0.00151485 0.00101058 0
-0.00320322 0.00156254 0
-0.00570915 0.00198369 0
-0.00868467 0.00223322 0
-0.0117818 0.00227031 0
-0.0148732 0.00217249 0
-0.0178318 0.00201727 0
-0.0205471 0.0018047 0
-0.0229089 0.00153483 0
-0.0248778 0.00122923 0
-0.0264142 0.000909491 0
-0.027491 0.000576399 0
-0.0280811 0.000230731 0
-0.0281769 -0.00012053 0
-0.0277707 -0.000470401 0
-0.0268791 -0.000807186 0
-0.0255187 -0.00111918 0
-0.0237323 -0.00140654 0
-0.0215628 -0.0016694 0
-0.0190647 -0.00188152 0
-0.0162926 -0.00201667 0
-0.0133702 -0.00208821 0
-0.0104212 -0.00210953 0
-0.00754334 -0.00201427 0
-0.00483454 -0.00173611 0
-0.00260178 -0.00131785 0
-0.00115205 -0.000802313 0
-0.000334939 -0.000319645 0
0 0 0
0 0 0
-0.000760995 0.00117066 0
-0.00320639 0.00289157 0
-0.00702228 0.00459996 0
-0.0118948 0.00573304 0
-0.0173962 0.00635529 0
-0.0230988 0.0065312 0
-0.0287436 0.00635936 0
-0.0340716 0.0059384 0
-0.0389345 0.00532168 0
-0.0431844 0.00456257 0
-0.0467418 0.0036976 0
-0.0495272 0.00276331 0
-0.0514849 0.00177252 0
-0.052559 0.000738038 0
-0.0527342 -0.000314936 0
-0.0519949 -0.00136123 0
-0.0503675 -0.00237177 0
-0.0478784 -0.0033175 0
-0.0446116 -0.00417745 0
-0.0406514 -0.00493064 0
-0.0361143 -0.0055442 0
-0.0311166 -0.00598525 0
-0.0258243 -0.00621346 0
-0.0204031 -0.00618852 0
-0.0151089 -0.00585479 0
-0.0101973 -0.00515665 0
-0.00596867 -0.00403888 0
-0.002723 -0.00244629 0
-0.000665159 -0.000919719 0
0 0 0
0 0 0
-0.00135841 0.00308964 0
-0.00531942 0.00665544 0
-0.0111359 0.00987843 0
-0.0180606 0.0119396 0
-0.0256592 0.0130171 0
-0.0334972 0.0132888 0
-0.0412217 0.0129092 0
-0.0484798 0.0120329 0
-0.0551037 0.0107761 0
-0.0609256 0.00925524 0
-0.0658203 0.00752223 0
-0.0696629 0.00562905 0
-0.0723725 0.00361165 0
-0.0738683 0.00150599 0
-0.0741264 -0.000637565 0
-0.0731227 -0.00276863 0
-0.0708944 -0.00482921 0
-0.0674784 -0.00676129 0
-0.0629912 -0.00850941 0
-0.0575493 -0.0100181 0
-0.0513315 -0.0112446 0
-0.0445164 -0.0121461 0
-0.0372909 -0.0126303 0
-0.0298421 -0.0126051 0
-0.0225274 -0.0119941 0
-0.0157042 -0.0107212 0
-0.00965113 -0.00866096 0
-0.00464672 -0.00568835 0
-0.00124501 -0.00255185 0
0 0 0
0 0 0
-0.00285302 0.00713159 0
-0.00809871 0.0133146 0
-0.0152226 0.0181641 0
-0.0237102 0.0212951 0
-0.0329982 0.0228695 0
-0.0425229 0.0230492 0
-0.051918 0.0221707 0
-0.060817 0.0205703 0
-0.0689962 0.0183932 0
-0.0762317 0.0157849 0
-0.0823419 0.0128202 0
-0.0871453 0.0095743 0
-0.0905449 0.00611712 0
-0.0924437 0.00251865 0
-0.092808 -0.00114276 0
-0.0916042 -0.00478879 0
-0.0888888 -0.00831498 0
-0.0847181 -0.0116169 0
-0.0792245 -0.0145991 0
-0.0725402 -0.0171663 0
-0.0648994 -0.0192394 0
-0.0565362 -0.0207394 0
-0.0476985 -0.0215932 0
-0.0386345 -0.0217273 0
-0.02963 -0.0209049 0
-0.0209712 -0.0188892 0
-0.0131996 -0.015682 0
-0.00685712 -0.0112849 0
-0.00232886 -0.00596768 0
0 0 0
0 0 0
-0.00400293 0.0116896 0
-0.0105845 0.0207396 0
-0.0191727 0.0272888 0
-0.0291953 0.0314759 0
-0.0400098 0.0335217 0
-0.0509736 0.0336469 0
-0.0617602 0.0323258 0
-0.0720429 0.030033 0
-0.0815391 0.0269256 0
-0.0899659 0.0231608 0
-0.0971092 0.0188538 0
-0.102755 0.0141198 0
-0.106782 0.00906112 0
-0.10907 0.00377989 0
-0.109566 -0.00160415 0
-0.108218 -0.00697128 0
-0.105093 -0.0121618 0
-0.100258 -0.0170161 0
-0.093873 -0.0213938 0
-0.0860946 -0.0251548 0
-0.0771988 -0.028169 0
-0.0674614 -0.0303063 0
-0.0572072 -0.0315311 0
-0.0467608 -0.0318074 0
-0.0363318 -0.0307853 0
-0.0261295 -0.0281151 0
-0.016811 -0.0237782 0
-0.00903327 -0.0177566 0
-0.00327131 -0.00988538 0
0 0 0
0 0 0
-0.00356623 0.0151566 0
-0.011817 0.0268008 0
-0.0228761 0.0350842 0
-0.0348671 0.0401586 0
-0.0472906 0.0425829 0
-0.0596471 0.042916 0
-0.0716762 0.0415566 0
-0.0831174 0.0389035 0
-0.0936596 0.0351258 0
-0.102991 0.0303923 0
-0.110925 0.0248852 0
-0.117272 0.0187864 0
-0.121864 0.0122159 0
-0.124532 0.00529356 0
-0.125188 -0.00179535 0
-0.123742 -0.00886569 0
-0.120248 -0.0157025 0
-0.11476 -0.0220907 0
-0.107499 -0.0278408 0
-0.0986829 -0.0327633 0
-0.0886103 -0.0366737 0
-0.0775776 -0.0393877 0
-0.0659774 -0.0408731 0
-0.0542021 -0.0410978 0
-0.0425478 -0.0398337 0
-0.0313105 -0.0368529 0
-0.020682 -0.0316261 0
-0.0108543 -0.023624 0
-0.00342698 -0.0130231 0
0 0 0
0 0 0
-0.00321681 0.0212867 0
-0.012579 0.0365581 0
-0.0253312 0.0467147 0
-0.0387181 0.052657 0
-0.0524555 0.0553174 0
-0.0662592 0.055628 0
-0.0797549 0.0539195 0
-0.0925685 0.0505224 0
-0.10438 0.0456725 0
-0.114868 0.0396059 0
-0.123836 0.0325362 0
-0.131086 0.024677 0
-0.136402 0.0161681 0
-0.139572 0.00714889 0
-0.140476 -0.00213061 0
-0.138997 -0.0114206 0
-0.135175 -0.0204183 0
-0.129053 -0.0288211 0
-0.120887 -0.0363741 0
-0.110936 -0.0428221 0
-0.0995328 -0.0479352 0
-0.0870108 -0.0514831 0
-0.0738235 -0.0533757 0
-0.0604242 -0.0535227 0
-0.047341 -0.0518823 0
-0.0351016 -0.0484125 0
-0.0234412 -0.0422726 0
-0.0120947 -0.0326219 0
-0.00347628 -0.0187634 0
0 0 0
0 0 0
-0.00462854 0.0338336 0
-0.013653 0.0550712 0
-0.025536 0.0673444 0
-0.0387402 0.0742849 0
-0.053119 0.0769893 0
-0.0685256 0.0765547 0
-0.0840855 0.0734714 0
-0.0989241 0.0682301 0
-0.112721 0.0612444 0
-0.125156 0.0529279 0
-0.13589 0.0434286 0
-0.144585 0.0328949 0
-0.151009 0.0215044 0
-0.15493 0.00943509 0
-0.156233 -0.00302417 0
-0.154802 -0.0155844 0
-0.150693 -0.0277907 0
-0.143964 -0.0391878 0
-0.134824 -0.0494275 0
-0.123484 -0.0581615 0
-0.110365 -0.0651347 0
-0.0958874 -0.0700921 0
-0.0805601 -0.0727954 0
-0.0648933 -0.0730064 0
-0.0497742 -0.0707632 0
-0.0360902 -0.0661036 0
-0.0237167 -0.0587651 0
-0.0125292 -0.0484851 0
-0.00409961 -0.0304885 0
0 0 0
0 0 0
-0.00533746 0.0434249 0
-0.0132963 0.0695897 0
-0.023802 0.0841097 0
-0.0367799 0.0926004 0
-0.0518083 0.0960387 0
-0.0684654 0.0954015 0
-0.0855862 0.0914216 0
-0.102005 0.084832 0
-0.11738 0.0761596 0
-0.131365 0.0659314 0
-0.14351 0.054257 0
-0.153359 0.0412457 0
-0.160684 0.0271395 0
-0.165253 0.0121802 0
-0.166957 -0.00329824 0
-0.165691 -0.0189619 0
-0.161508 -0.0342324 0
-0.154465 -0.0485311 0
-0.144718 -0.0614037 0
-0.13242 -0.0723953 0
-0.118044 -0.0811968 0
-0.102062 -0.0874991 0
-0.0850363 -0.0909265 0
-0.0675294 -0.0911036 0
-0.0506512 -0.0880303 0
-0.0355116 -0.0817063 0
-0.022495 -0.0726319 0
-0.0119858 -0.0613071 0
-0.00436161 -0.0397553 0
0 0 0
0 0 0
-0.00287964 0.0406883 0
-0.00976628 0.0673631 0
-0.0204406 0.0841469 0
-0.0346833 0.0951621 0
-0.0510504 0.100906 0
-0.0680977 0.101874 0
-0.0851754 0.0989797 0
-0.101633 0.0931332 0
-0.117051 0.0847361 0
-0.131008 0.0741898 0
-0.143118 0.0617157 0
-0.152999 0.0475355 0
-0.160429 0.0319881 0
-0.165187 0.0154124 0
-0.16715 -0.00177501 0
-0.166196 -0.0191575 0
-0.162322 -0.0361561 0
-0.155527 -0.0521918 0
-0.145975 -0.0667053 0
-0.133834 -0.0791375 0
-0.119504 -0.089046 0
-0.103389 -0.0959886 0
-0.086101 -0.0995635 0
-0.0682528 -0.099369 0
-0.0507758 -0.0952373 0
-0.0346013 -0.0870008 0
-0.0207626 -0.0754014 0
-0.0102928 -0.0611813 0
-0.00332693 -0.0381207 0
0 0 0
0 0 0
-0.00106109 0.0342465 0
-0.00761921 0.060113 0
-0.0189056 0.0791359 0
-0.0341516 0.0928515 0
-0.0512167 0.101288 0
-0.0679609 0.104474 0
-0.0842848 0.103354 0
-0.100089 0.0988745 0
-0.114875 0.0912974 0
-0.128143 0.0808853 0
-0.139622 0.0680314 0
-0.149041 0.0531288 0
-0.156197 0.0366083 0
-0.160885 0.0189002 0
-0.162975 0.00050501 0
-0.162339 -0.018077 0
-0.15893 -0.0363078 0
-0.152706 -0.0536492 0
-0.143829 -0.0694702 0
-0.132463 -0.0831398 0
-0.118897 -0.0940473 0
-0.103421 -0.101582 0
-0.0866585 -0.105322 0
-0.0692321 -0.104843 0
-0.051815 -0.0997886 0
-0.0350804 -0.0898036 0
-0.0205268 -0.0755097 0
-0.00965297 -0.0575288 0
-0.00272276 -0.0332344 0
0 0 0
0 0 0
-0.00368785 0.0327222 0
-0.0114115 0.0595606 0
-0.0226509 0.0807564 0
-0.0368857 0.0965503 0
-0.0526788 0.106885 0
-0.0685933 0.111701 0
-0.0843461 0.111753 0
-0.099654 0.107796 0
-0.113991 0.100167 0
-0.126831 0.0892004 0
-0.137924 0.0754308 0
-0.14702 0.0593907 0
-0.153938 0.0415584 0
-0.158498 0.0224124 0
-0.160599 0.00250132 0
-0.16014 -0.0176263 0
-0.157126 -0.0374334 0
-0.151561 -0.056383 0
-0.143512 -0.0738361 0
-0.133045 -0.0891538 0
-0.120374 -0.101566 0
-0.105711 -0.110302 0
-0.0896127 -0.114816 0
-0.0726359 -0.114564 0
-0.0554363 -0.109088 0
-0.03867 -0.0979317 0
-0.023795 -0.0813929 0
-0.0122692 -0.059771 0
-0.00427629 -0.0327465 0
0 0 0
0 0 0
-0.00687823 0.0354816 0
-0.016088 0.0652063 0
-0.0274148 0.0889936 0
-0.0406442 0.106663 0
-0.055258 0.118314 0
-0.0707383 0.124045 0
-0.0864122 0.124458 0
-0.101607 0.120152 0
-0.115805 0.111645 0
-0.128488 0.0994518 0
-0.139415 0.0842069 0
-0.148347 0.0665442 0
-0.155134 0.0469693 0
-0.159625 0.025988 0
-0.161758 0.00415859 0
-0.16147 -0.0179603 0
-0.158814 -0.039809 0
-0.153847 -0.0608277 0
-0.146522 -0.0803688 0
-0.136794 -0.0977845 0
-0.124799 -0.112179 0
-0.110674 -0.122657 0
-0.0948937 -0.128491 0
-0.0779296 -0.128953 0
-0.0605298 -0.123462 0
-0.0434416 -0.111433 0
-0.0279714 -0.0928229 0
-0.0154253 -0.0675863 0
-0.006027 -0.0364148 0
0 0 0
0 0 0
-0.00675057 0.0418908 0
-0.0165934 0.0765502 0
-0.0289359 0.103833 0
-0.0431857 0.123594 0
-0.0587757 0.136194 0
-0.0751389 0.141996 0
-0.0915363 0.141747 0
-0.107229 0.136195 0
-0.121724 0.126033 0
-0.13453 0.111956 0
-0.145486 0.0946528 0
-0.154434 0.0748127 0
-0.161264 0.0529718 0
-0.165865 0.0296658 0
-0.168192 0.00542152 0
-0.168198 -0.0192343 0
-0.165901 -0.043711 0
-0.16132 -0.0674181 0
-0.154358 -0.0896338 0
-0.144923 -0.109637 0
-0.133038 -0.126466 0
-0.118729 -0.139159 0
-0.102431 -0.146789 0
-0.0845785 -0.148429 0
-0.0659856 -0.143233 0
-0.0474667 -0.130356 0
-0.0304604 -0.109572 0
-0.0164054 -0.0806532 0
-0.00601437 -0.0439971 0
0 0 0
0 0 0
-0.00552357 0.0495589 0
-0.0157022 0.0899071 0
-0.0293462 0.121029 0
-0.0452657 0.142908 0
-0.0624801 0.156236 0
-0.0800089 0.161704 0
-0.0971704 0.160332 0
-0.113283 0.153143 0
-0.127929 0.141014 0
-0.140693 0.124825 0
-0.151512 0.105301 0
-0.160325 0.0831693 0
-0.167083 0.058989 0
-0.171736 0.0333191 0
-0.174252 0.00663964 0
-0.174598 -0.0205695 0
-0.172724 -0.0477088 0
-0.168583 -0.0741788 0
-0.16204 -0.0991846 0
-0.152959 -0.121931 0
-0.141252 -0.141411 0
-0.12683 -0.156615 0
-0.11006 -0.16638 0
-0.0913082 -0.169542 0
-0.0714334 -0.164929 0
-0.0512951 -0.151364 0
-0.0325504 -0.128408 0
-0.0168565 -0.0956183 0
-0.00555813 -0.0528605 0
0 0 0
0 0 0
-0.00541596 0.056095 0
-0.0161892 0.101592 0
-0.0307778 0.136336 0
-0.0476397 0.160172 0
-0.0656196 0.174149 0
-0.0835621 0.179317 0
-0.100767 0.176922 0
-0.116533 0.168212 0
-0.130602 0.154268 0
-0.142715 0.136168 0
-0.152869 0.114684 0
-0.161065 0.0905873 0
-0.167346 0.0644443 0
-0.171757 0.0368212 0
-0.174292 0.00816253 0
-0.174942 -0.0210873 0
-0.173622 -0.0503719 0
-0.170242 -0.0791348 0
-0.164585 -0.106574 0
-0.156428 -0.131889 0
-0.145602 -0.154 0
-0.131933 -0.171831 0
-0.115616 -0.18393 0
-0.0968441 -0.188846 0
-0.0765026 -0.185076 0
-0.0554767 -0.171122 0
-0.03553 -0.146101 0
-0.0184258 -0.109128 0
-0.00597796 -0.060372 0
0 0 0
0 0 0
-0.00584553 0.062847 0
-0.0173484 0.113398 0
-0.0327077 0.151505 0
-0.0501226 0.177022 0
-0.0683147 0.191359 0
-0.0860055 0.195926 0
-0.102533 0.192263 0
-0.117235 0.181909 0
-0.130025 0.166123 0
-0.140819 0.146161 0
-0.149704 0.122855 0
-0.15677 0.0970364 0
-0.162165 0.0692519 0
-0.166034 0.0400468 0
-0.168409 0.0098208 0
-0.169324 -0.0210265 0
-0.168665 -0.0520186 0
-0.166323 -0.0826791 0
-0.161985 -0.112258 0
-0.155341 -0.140004 0
-0.146106 -0.16476 0
-0.133996 -0.185365 0
-0.118991 -0.200098 0
-0.101072 -0.207235 0
-0.0810382 -0.204841 0
-0.0596888 -0.190981 0
-0.0388908 -0.164227 0
-0.0205116 -0.12315 0
-0.00679877 -0.0682431 0
0 0 0
0 0 0
-0.0062301 0.0711627 0
-0.0184739 0.127117 0
-0.0346131 0.168287 0
-0.0525294 0.195095 0
-0.070686 0.20929 0
-0.0875462 0.212623 0
-0.102676 0.207103 0
-0.115643 0.194739 0
-0.126481 0.176905 0
-0.135229 0.154976 0
-0.142161 0.129865 0
-0.147557 0.102486 0
-0.151649 0.0733262 0
-0.15467 0.0428708 0
-0.156704 0.0114451 0
-0.157835 -0.0206259 0
-0.157928 -0.0529675 0
-0.156849 -0.0852047 0
-0.154231 -0.11669 0
-0.149705 -0.146775 0
-0.142783 -0.174217 0
-0.132976 -0.197773 0
-0.120076 -0.215538 0
-0.103877 -0.225608 0
-0.0848852 -0.22539 0
-0.0636084 -0.212291 0
-0.0421246 -0.184362 0
-0.022512 -0.139649 0
-0.00754548 -0.0781851 0
0 0 0
0 0 0
-0.00664622 0.0804397 0
-0.019768 0.142015 0
-0.0366666 0.185909 0
-0.0546436 0.213307 0
-0.072069 0.226555 0
-0.0873129 0.228001 0
-0.100183 0.220124 0
-0.110485 0.205407 0
-0.118456 0.18537 0
-0.124334 0.161534 0
-0.128599 0.134846 0
-0.131732 0.106252 0
-0.134053 0.076159 0
-0.135886 0.0449726 0
-0.137366 0.0129137 0
-0.13863 -0.0197972 0
-0.139538 -0.0529122 0
-0.139949 -0.0861837 0
-0.139452 -0.119098 0
-0.137637 -0.15114 0
-0.133807 -0.181068 0
-0.127267 -0.207638 0
-0.117526 -0.228758 0
-0.104091 -0.242335 0
-0.0871306 -0.245103 0
-0.0668137 -0.233791 0
-0.0452494 -0.205619 0
-0.0245471 -0.157805 0
-0.00827468 -0.0895363 0
0 0 0
0 0 0
-0.00717048 0.0900757 0
-0.0214327 0.157353 0
-0.0390407 0.203598 0
-0.0562487 0.230574 0
-0.0717991 0.241764 0
-0.0844346 0.240651 0
-0.094037 0.230012 0
-0.100488 0.212623 0
-0.104435 0.190274 0
-0.106525 0.164756 0
-0.107374 0.136929 0
-0.107599 0.10765 0
-0.10763 0.0772425 0
-0.107898 0.0460318 0
-0.108583 0.0141047 0
-0.109864 -0.0184518 0
-0.111624 -0.0515464 0
-0.113748 -0.0850878 0
-0.115777 -0.118709 0
-0.117249 -0.152042 0
-0.11735 -0.184012 0
-0.115264 -0.213544 0
-0.109994 -0.238261 0
-0.100546 -0.255789 0
-0.0868617 -0.262364 0
-0.0688827 -0.25422 0
-0.0482831 -0.227112 0
-0.0267369 -0.176795 0
-0.00904298 -0.101635 0
0 0 0
0 0 0
-0.00805428 0.100726 0
-0.0231354 0.17325 0
-0.040726 0.220661 0
-0.0563088 0.24605 0
-0.0688987 0.254092 0
-0.0775105 0.249466 0
-0.0823551 0.235418 0
-0.0836435 0.215194 0
-0.0824484 0.190715 0
-0.0798427 0.163904 0
-0.0765525 0.135485 0
-0.0733043 0.106183 0
-0.0706151 0.0762089 0
-0.0690022 0.045773 0
-0.0686756 0.01482 0
-0.0698454 -0.0167058 0
-0.0724384 -0.0488794 0
-0.0763814 -0.0817758 0
-0.081201 -0.115209 0
-0.0864238 -0.148993 0
-0.0911717 -0.182299 0
-0.0945671 -0.214297 0
-0.0951262 -0.242535 0
-0.0913659 -0.264559 0
-0.0826919 -0.275958 0
-0.0685101 -0.272323 0
-0.0500908 -0.247778 0
-0.0287045 -0.196449 0
-0.0100935 -0.114976 0
0 0 0
0 0 0
-0.009549 0.113045 0
-0.0245431 0.189821 0
-0.0407127 0.236408 0
-0.0537881 0.258889 0
-0.0623903 0.262714 0
-0.0651402 0.253337 0
-0.0632525 0.234996 0
-0.0579416 0.21193 0
-0.0505273 0.185794 0
-0.0423292 0.15824 0
-0.0342005 0.129888 0
-0.0269939 0.101359 0
-0.021246 0.0726902 0
-0.0174932 0.0439206 0
-0.0159632 0.0148617 0
-0.0168836 -0.0146751 0
-0.0202309 -0.0449207 0
-0.0259817 -0.0761061 0
-0.0337228 -0.108284 0
-0.0430411 -0.141507 0
-0.0530289 -0.175179 0
-0.0627784 -0.208705 0
-0.0705672 -0.240062 0
-0.074673 -0.267232 0
-0.0732346 -0.284673 0
-0.0643907 -0.286847 0
-0.049538 -0.266554 0
-0.030073 -0.216596 0
-0.0116692 -0.130052 0
0 0 0
0 0 0
-0.0104899 0.125718 0
-0.0252547 0.205645 0
-0.0392383 0.249431 0
-0.0473848 0.266729 0
-0.0490189 0.264483 0
-0.0434653 0.249637 0
-0.0329533 0.22707 0
-0.0197124 0.20166 0
-0.00519441 0.17463 0
0.00914865 0.147207 0
0.0224241 0.119852 0
0.0337391 0.0930291 0
0.0426098 0.0665932 0
0.0485524 0.0403995 0
0.0513474 0.014147 0
0.0507753 -0.0124649 0
0.0468076 -0.039795 0
0.0394157 -0.0682023 0
0.0288862 -0.0979754 0
0.0155057 -0.129403 0
0.00010196 -0.162165 0
-0.0164971 -0.195941 0
-0.0325429 -0.229368 0
-0.0462866 -0.261084 0
-0.0546703 -0.284953 0
-0.0546361 -0.294836 0
-0.046408 -0.281431 0
-0.0302101 -0.235434 0
-0.0125662 -0.14543 0
0 0 0
0 0 0
-0.00971219 0.137428 0
-0.0248687 0.2193 0
-0.0365402 0.258325 0
-0.0357972 0.26721 0
-0.0255297 0.256251 0
-0.00862729 0.235743 0
0.012318 0.209969 0
0.0347142 0.18321 0
0.0570276 0.156345 0
0.0777243 0.130248 0
0.0960628 0.105092 0
0.111301 0.0810475 0
0.123085 0.0578246 0
0.131058 0.0351342 0
0.135049 0.0125934 0
0.134885 -0.0101802 0
0.130487 -0.0336272 0
0.121776 -0.0581879 0
0.108854 -0.0843249 0
0.0918236 -0.112501 0
0.0712448 -0.142769 0
0.0476776 -0.17518 0
0.0227212 -0.208975 0
-0.00202561 -0.24339 0
-0.0231797 -0.273239 0
-0.0373581 -0.293335 0
-0.0404848 -0.290401 0
-0.0284839 -0.25116 0
-0.0115805 -0.159673 0
0 0 0
0 0 0
-0.00901402 0.150841 0
-0.0197839 0.229494 0
-0.0226041 0.257145 0
-0.00776879 0.254975 0
0.0180247 0.235272 0
0.048079 0.210322 0
0.079997 0.183131 0
0.111381 0.156702 0
0.140855 0.131546 0
0.16704 0.10817 0
0.189502 0.0864219 0
0.207804 0.0661474 0
0.221781 0.0469683 0
0.231265 0.0285066 0
0.23616 0.0103449 0
0.236369 -0.00793368 0
0.231772 -0.0267952 0
0.22225 -0.0467054 0
0.207704 -0.0682107 0
0.188034 -0.0918572 0
0.163403 -0.118064 0
0.133975 -0.147249 0
0.100939 -0.179196 0
0.0654851 -0.213686 0
0.0304959 -0.247351 0
-0.0011458 -0.276824 0
-0.0209813 -0.286629 0
-0.0205519 -0.26129 0
-0.010133 -0.174513 0
0 0 0
0 0 0
-0.0101935 0.168623 0
-0.00639905 0.234935 0
0.0125842 0.239946 0
0.0479572 0.224667 0
0.0915916 0.198799 0
0.135359 0.172043 0
0.177519 0.145996 0
0.216331 0.122255 0
0.251002 0.100842 0
0.280738 0.081778 0
0.305528 0.0646543 0
0.32536 0.0490623 0
0.340301 0.0346083 0
0.350415 0.0208985 0
0.355699 0.00754556 0
0.356151 -0.00583766 0
0.351628 -0.0196768 0
0.341991 -0.0343974 0
0.32696 -0.0505109 0
0.306257 -0.0685288 0
0.279579 -0.0891249 0
0.246623 -0.112973 0
0.207825 -0.140343 0
0.163621 -0.171507 0
0.115615 -0.205106 0
0.0654113 -0.239782 0
0.0228893 -0.26328 0
-0.00207189 -0.263342 0
-0.00964434 -0.191678 0
0 0 0
0 0 0
0.0118946 0.164939 0
0.0465707 0.213329 0
0.0963266 0.198942 0
0.153461 0.175551 0
0.211843 0.14882 0
0.265344 0.124414 0
0.313361 0.102676 0
0.355291 0.083948 0
0.391179 0.067906 0
0.421074 0.0542261 0
0.44538 0.0423781 0
0.464501 0.031832 0
0.478704 0.0222538 0
0.488258 0.0133093 0
0.493244 0.00469188 0
0.493742 -0.00390527 0
0.489609 -0.0128158 0
0.480702 -0.0223732 0
0.466627 -0.0329677 0
0.446991 -0.0449895 0
0.421108 -0.0591879 0
0.388288 -0.0763127 0
0.348065 -0.0968949 0
0.299975 -0.121466 0
0.243958 -0.150289 0
0.179956 -0.183628 0
0.115124 -0.214348 0
0.0566156 -0.235311 0
0.0147888 -0.184526 0
0 0 0
2.77334e-30 0 0
0.0823951 0.113954 0
0.17041 0.142384 0
0.255925 0.126346 0
0.330821 0.106892 0
0.39545 0.087325 0
0.450167 0.0709467 0
0.496001 0.0572829 0
0.533985 0.0458592 0
0.565093 0.0364096 0
0.590303 0.0286683 0
0.610297 0.0221817 0
0.625758 0.0164961 0
0.637053 0.0114141 0
0.644549 0.0067386 0
0.648374 0.00228038 0
0.648656 -0.0021496 0
0.645269 -0.00675572 0
0.638086 -0.0117424 0
0.626708 -0.0173235 0
0.610733 -0.023713 0
0.589321 -0.0314891 0
0.561633 -0.04123 0
0.526348 -0.0533275 0
0.482143 -0.0681736 0
0.427308 -0.0866852 0
0.360132 -0.109779 0
0.279718 -0.133826 0
0.18517 -0.155197 0
0.0880697 -0.126414 0
2.77334e-30 0 0
0.25 0 0
0.35915 0.048147 0
0.457445 0.0589811 0
0.540707 0.0505631 0
0.60476 0.0409537 0
0.65423 0.0318669 0
0.693745 0.0250163 0
0.72502 0.0197472 0
0.749769 0.0154045 0
0.769212 0.0119189 0
0.784566 0.00922095 0
0.796448 0.00705808 0
0.805477 0.0051777 0
0.81195 0.0035195 0
0.816169 0.0020232 0
0.818242 0.000615085 0
0.818279 -0.000778547 0
0.816201 -0.00223703 0
0.811925 -0.00383968 0
0.805175 -0.0056452 0
0.795672 -0.00771225 0
0.782769 -0.010327 0
0.765818 -0.0137755 0
0.743413 -0.0181822 0
0.714145 -0.0236713 0
0.675907 -0.0310152 0
0.626595 -0.0409862 0
0.560176 -0.0522118 0
0.470621 -0.0633196 0
0.364905 -0.0530142 0
0.25 0 0
1 0 0
1 0 0
1 0 0
1 0 0
1 0 0
1 0 0
1 0 0
1 0 0
1 0 0
1 0 0
1 0 0
1 0 0
1 0 0
1 0 0
1 0 0
1 0 0
1 0 0
1 0 0
1 0 0
1 0 0
1 0 0
1 0 0
1 0 0
1 0 0
1 0 0
1 0 0
1 0 0
1 0 0
1 0 0
1 0 0
1 0 0
      </DataArray> 
      <DataArray type="Float64" NumberOfComponents="3" Name="Real Velocity" format="ascii">
0 0 0
0 0 0
0 0 0
0 0 0
0 0 0
0 0 0
0 0 0
0 0 0
0 0 0
0 0 0
0 0 0
0 0 0