<?xml version="1.0"?>
<VTKFile type="UnstructuredGrid">
  <UnstructuredGrid>
  <Piece NumberOfPoints="961"  NumberOfCells="225">
    <Points>
      <DataArray type="Float64" NumberOfComponents="3" format="ascii">
0 0 0
0.0333333 0 0
0.0666667 0 0
0.1 0 0
0.133333 0 0
0.166667 0 0
0.2 0 0
0.233333 0 0
0.266667 0 0
0.3 0 0
0.333333 0 0
0.366667 0 0
0.4 0 0
0.433333 0 0
0.466667 0 0
0.5 0 0
0.533333 0 0
0.566667 0 0
0.6 0 0
0.633333 0 0
0.666667 0 0
0.7 0 0
0.733333 0 0
0.766667 0 0
0.8 0 0
0.833333 0 0
0.866667 0 0
0.9 0 0
0.933333 0 0
0.966667 0 0
1 0 0
0 0.0333333 0
0.0333333 0.0333333 0
0.0666667 0.0333333 0
0.1 0.0333333 0
0.133333 0.0333333 0
0.166667 0.0333333 0
0.2 0.0333333 0
0.233333 0.0333333 0
0.266667 0.0333333 0
0.3 0.0333333 0
0.333333 0.0333333 0
0.366667 0.0333333 0
0.4 0.0333333 0
0.433333 0.0333333 0
0.466667 0.0333333 0
0.5 0.0333333 0
0.533333 0.0333333 0
0.566667 0.0333333 0
0.6 0.0333333 0
0.633333 0.0333333 0
0.666667 0.0333333 0
0.7 0.0333333 0
0.733333 0.0333333 0
0.766667 0.0333333 0
0.8 0.0333333 0
0.833333 0.0333333 0
0.866667 0.0333333 0
0.9 0.0333333 0
0.933333 0.0333333 0
0.966667 0.0333333 0
1 0.0333333 0
0 0.0666667 0
0.0333333 0.0666667 0
0.0666667 0.0666667 0
0.1 0.0666667 0
0.133333 0.0666667 0
0.166667 0.0666667 0
0.2 0.0666667 0
0.233333 0.0666667 0
0.266667 0.0666667 0
0.3 0.0666667 0
0.333333 0.0666667 0
0.366667 0.0666667 0
0.4 0.0666667 0
0.433333 0.0666667 0
0.466667 0.0666667 0
0.5 0.0666667 0
0.533333 0.0666667 0
0.566667 0.0666667 0
0.6 0.0666667 0
0.633333 0.0666667 0
0.666667 0.0666667 0
0.7 0.0666667 0
0.733333 0.0666667 0
0.766667 0.0666667 0
0.8 0.0666667 0
0.833333 0.0666667 0
0.866667 0.0666667 0
0.9 0.0666667 0
0.933333 0.0666667 0
0.966667 0.0666667 0
1 0.0666667 0
0 0.1 0
0.0333333 0.1 0
0.0666667 0.1 0
0.1 0.1 0
0.133333 0.1 0
0.166667 0.1 0
0.2 0.1 0
0.233333 0.1 0
0.266667 0.1 0
0.3 0.1 0
0.333333 0.1 0
0.366667 0.1 0
0.4 0.1 0
0.433333 0.1 0
0.466667 0.1 0
0.5 0.1 0
0.533333 0.1 0
0.566667 0.1 0
0.6 0.1 0
0.633333 0.1 0
0.666667 0.1 0
0.7 0.1 0
0.733333 0.1 0
0.766667 0.1 0
0.8 0.1 0
0.833333 0.1 0
0.866667 0.1 0
0.9 0.1 0
0.933333 0.1 0
0.966667 0.1 0
1 0.1 0
0 0.133333 0
0.0333333 0.133333 0
0.0666667 0.133333 0
0.1 0.133333 0
0.133333 0.133333 0
0.166667 0.133333 0
0.2 0.133333 0
0.233333 0.133333 0
0.266667 0.133333 0
0.3 0.133333 0
0.333333 0.133333 0
0.366667 0.133333 0
0.4 0.133333 0
0.433333 0.133333 0
0.466667 0.133333 0
0.5 0.133333 0
0.533333 0.133333 0
0.566667 0.133333 0
0.6 0.133333 0
0.633333 0.133333 0
0.666667 0.133333 0
0.7 0.133333 0
0.733333 0.133333 0
0.766667 0.133333 0
0.8 0.133333 0
0.833333 0.133333 0
0.866667 0.133333 0
0.9 0.133333 0
0.933333 0.133333 0
0.966667 0.133333 0
1 0.133333 0
0 0.166667 0
0.0333333 0.166667 0
0.0666667 0.166667 0
0.1 0.166667 0
0.133333 0.166667 0
0.166667 0.166667 0
0.2 0.166667 0
0.233333 0.166667 0
0.266667 0.166667 0
0.3 0.166667 0
0.333333 0.166667 0
0.366667 0.166667 0
0.4 0.166667 0
0.433333 0.166667 0
0.466667 0.166667 0
0.5 0.166667 0
0.533333 0.166667 0
0.566667 0.166667 0
0.6 0.166667 0
0.633333 0.166667 0
0.666667 0.166667 0
0.7 0.166667 0
0.733333 0.166667 0
0.766667 0.166667 0
0.8 0.166667 0
0.833333 0.166667 0
0.866667 0.166667 0
0.9 0.166667 0
0.933333 0.166667 0
0.966667 0.166667 0
1 0.166667 0
0 0.2 0
0.0333333 0.2 0
0.0666667 0.2 0
0.1 0.2 0
0.133333 0.2 0
0.166667 0.2 0
0.2 0.2 0
0.233333 0.2 0
0.266667 0.2 0
0.3 0.2 0
0.333333 0.2 0
0.366667 0.2 0
0.4 0.2 0
0.433333 0.2 0
0.466667 0.2 0
0.5 0.2 0
0.533333 0.2 0
0.566667 0.2 0
0.6 0.2 0
0.633333 0.2 0
0.666667 0.2 0
0.7 0.2 0
0.733333 0.2 0
0.766667 0.2 0
0.8 0.2 0
0.833333 0.2 0
0.866667 0.2 0
0.9 0.2 0
0.933333 0.2 0
0.966667 0.2 0
1 0.2 0
0 0.233333 0
0.0333333 0.233333 0
0.0666667 0.233333 0
0.1 0.233333 0
0.133333 0.233333 0
0.166667 0.233333 0
0.2 0.233333 0
0.233333 0.233333 0
0.266667 0.233333 0
0.3 0.233333 0
0.333333 0.233333 0
0.366667 0.233333 0
0.4 0.233333 0
0.433333 0.233333 0
0.466667 0.233333 0
0.5 0.233333 0
0.533333 0.233333 0
0.566667 0.233333 0
0.6 0.233333 0
0.633333 0.233333 0
0.666667 0.233333 0
0.7 0.233333 0
0.733333 0.233333 0
0.766667 0.233333 0
0.8 0.233333 0
0.833333 0.233333 0
0.866667 0.233333 0
0.9 0.233333 0
0.933333 0.233333 0
0.966667 0.233333 0
1 0.233333 0
0 0.266667 0
0.0333333 0.266667 0
0.0666667 0.266667 0
0.1 0.266667 0
0.133333 0.266667 0
0.166667 0.266667 0
0.2 0.266667 0
0.233333 0.266667 0
0.266667 0.266667 0
0.3 0.266667 0
0.333333 0.266667 0
0.366667 0.266667 0
0.4 0.266667 0
0.433333 0.266667 0
0.466667 0.266667 0
0.5 0.266667 0
0.533333 0.266667 0
0.566667 0.266667 0
0.6 0.266667 0
0.633333 0.266667 0
0.666667 0.266667 0
0.7 0.266667 0
0.733333 0.266667 0
0.766667 0.266667 0
0.8 0.266667 0
0.833333 0.266667 0
0.866667 0.266667 0
0.9 0.266667 0
0.933333 0.266667 0
0.966667 0.266667 0
1 0.266667 0
0 0.3 0
0.0333333 0.3 0
0.0666667 0.3 0
0.1 0.3 0
0.133333 0.3 0
0.166667 0.3 0
0.2 0.3 0
0.233333 0.3 0
0.266667 0.3 0
0.3 0.3 0
0.333333 0.3 0
0.366667 0.3 0
0.4 0.3 0
0.433333 0.3 0
0.466667 0.3 0
0.5 0.3 0
0.533333 0.3 0
0.566667 0.3 0
0.6 0.3 0
0.633333 0.3 0
0.666667 0.3 0
0.7 0.3 0
0.733333 0.3 0
0.766667 0.3 0
0.8 0.3 0
0.833333 0.3 0
0.866667 0.3 0
0.9 0.3 0
0.933333 0.3 0
0.966667 0.3 0
1 0.3 0
0 0.333333 0
0.0333333 0.333333 0
0.0666667 0.333333 0
0.1 0.333333 0
0.133333 0.333333 0
0.166667 0.333333 0
0.2 0.333333 0
0.233333 0.333333 0
0.266667 0.333333 0
0.3 0.333333 0
0.333333 0.333333 0
0.366667 0.333333 0
0.4 0.333333 0
0.433333 0.333333 0
0.466667 0.333333 0
0.5 0.333333 0
0.533333 0.333333 0
0.566667 0.333333 0
0.6 0.333333 0
0.633333 0.333333 0
0.666667 0.333333 0
0.7 0.333333 0
0.733333 0.333333 0
0.766667 0.333333 0
0.8 0.333333 0
0.833333 0.333333 0
0.866667 0.333333 0
0.9 0.333333 0
0.933333 0.333333 0
0.966667 0.333333 0
1 0.333333 0
0 0.366667 0
0.0333333 0.366667 0
0.0666667 0.366667 0
0.1 0.366667 0
0.133333 0.366667 0
0.166667 0.366667 0
0.2 0.366667 0
0.233333 0.366667 0
0.266667 0.366667 0
0.3 0.366667 0
0.333333 0.366667 0
0.366667 0.366667 0
0.4 0.366667 0
0.433333 0.366667 0
0.466667 0.366667 0
0.5 0.366667 0
0.533333 0.366667 0
0.566667 0.366667 0
0.6 0.366667 0
0.633333 0.366667 0
0.666667 0.366667 0
0.7 0.366667 0
0.733333 0.366667 0
0.766667 0.366667 0
0.8 0.366667 0
0.833333 0.366667 0
0.866667 0.366667 0
0.9 0.366667 0
0.933333 0.366667 0
0.966667 0.366667 0
1 0.366667 0
0 0.4 0
0.0333333 0.4 0
0.0666667 0.4 0
0.1 0.4 0
0.133333 0.4 0
0.166667 0.4 0
0.2 0.4 0
0.233333 0.4 0
0.266667 0.4 0
0.3 0.4 0
0.333333 0.4 0
0.366667 0.4 0
0.4 0.4 0
0.433333 0.4 0
0.466667 0.4 0
0.5 0.4 0
0.533333 0.4 0
0.566667 0.4 0
0.6 0.4 0
0.633333 0.4 0
0.666667 0.4 0
0.7 0.4 0
0.733333 0.4 0
0.766667 0.4 0
0.8 0.4 0
0.833333 0.4 0
0.866667 0.4 0
0.9 0.4 0
0.933333 0.4 0
0.966667 0.4 0
1 0.4 0
0 0.433333 0
0.0333333 0.433333 0
0.0666667 0.433333 0
0.1 0.433333 0
0.133333 0.433333 0
0.166667 0.433333 0
0.2 0.433333 0
0.233333 0.433333 0
0.266667 0.433333 0
0.3 0.433333 0
0.333333 0.433333 0
0.366667 0.433333 0
0.4 0.433333 0
0.433333 0.433333 0
0.466667 0.433333 0
0.5 0.433333 0
0.533333 0.433333 0
0.566667 0.433333 0
0.6 0.433333 0
0.633333 0.433333 0
0.666667 0.433333 0
0.7 0.433333 0
0.733333 0.433333 0
0.766667 0.433333 0
0.8 0.433333 0
0.833333 0.433333 0
0.866667 0.433333 0
0.9 0.433333 0
0.933333 0.433333 0
0.966667 0.433333 0
1 0.433333 0
0 0.466667 0
0.0333333 0.466667 0
0.0666667 0.466667 0
0.1 0.466667 0
0.133333 0.466667 0
0.166667 0.466667 0
0.2 0.466667 0
0.233333 0.466667 0
0.266667 0.466667 0
0.3 0.466667 0
0.333333 0.466667 0
0.366667 0.466667 0
0.4 0.466667 0
0.433333 0.466667 0
0.466667 0.466667 0
0.5 0.466667 0
0.533333 0.466667 0
0.566667 0.466667 0
0.6 0.466667 0
0.633333 0.466667 0
0.666667 0.466667 0
0.7 0.466667 0
0.733333 0.466667 0
0.766667 0.466667 0
0.8 0.466667 0
0.833333 0.466667 0
0.866667 0.466667 0
0.9 0.466667 0
0.933333 0.466667 0
0.966667 0.466667 0
1 0.466667 0
0 0.5 0
0.0333333 0.5 0
0.0666667 0.5 0
0.1 0.5 0
0.133333 0.5 0
0.166667 0.5 0
0.2 0.5 0
0.233333 0.5 0
0.266667 0.5 0
0.3 0.5 0
0.333333 0.5 0
0.366667 0.5 0
0.4 0.5 0
0.433333 0.5 0
0.466667 0.5 0
0.5 0.5 0
0.533333 0.5 0
0.566667 0.5 0
0.6 0.5 0
0.633333 0.5 0
0.666667 0.5 0
0.7 0.5 0
0.733333 0.5 0
0.766667 0.5 0
0.8 0.5 0
0.833333 0.5 0
0.866667 0.5 0
0.9 0.5 0
0.933333 0.5 0
0.966667 0.5 0
1 0.5 0
0 0.533333 0
0.0333333 0.533333 0
0.0666667 0.533333 0
0.1 0.533333 0
0.133333 0.533333 0
0.166667 0.533333 0
0.2 0.533333 0
0.233333 0.533333 0
0.266667 0.533333 0
0.3 0.533333 0
0.333333 0.533333 0
0.366667 0.533333 0
0.4 0.533333 0
0.433333 0.533333 0
0.466667 0.533333 0
0.5 0.533333 0
0.533333 0.533333 0
0.566667 0.533333 0
0.6 0.533333 0
0.633333 0.533333 0
0.666667 0.533333 0
0.7 0.533333 0
0.733333 0.533333 0
0.766667 0.533333 0
0.8 0.533333 0
0.833333 0.533333 0
0.866667 0.533333 0
0.9 0.533333 0
0.933333 0.533333 0
0.966667 0.533333 0
1 0.533333 0
0 0.566667 0
0.0333333 0.566667 0
0.0666667 0.566667 0
0.1 0.566667 0
0.133333 0.566667 0
0.166667 0.566667 0
0.2 0.566667 0
0.233333 0.566667 0
0.266667 0.566667 0
0.3 0.566667 0
0.333333 0.566667 0
0.366667 0.566667 0
0.4 0.566667 0
0.433333 0.566667 0
0.466667 0.566667 0
0.5 0.566667 0
0.533333 0.566667 0
0.566667 0.566667 0
0.6 0.566667 0
0.633333 0.566667 0
0.666667 0.566667 0
0.7 0.566667 0
0.733333 0.566667 0
0.766667 0.566667 0
0.8 0.566667 0
0.833333 0.566667 0
0.866667 0.566667 0
0.9 0.566667 0
0.933333 0.566667 0
0.966667 0.566667 0
1 0.566667 0
0 0.6 0
0.0333333 0.6 0
0.0666667 0.6 0
0.1 0.6 0
0.133333 0.6 0
0.166667 0.6 0
0.2 0.6 0
0.233333 0.6 0
0.266667 0.6 0
0.3 0.6 0
0.333333 0.6 0
0.366667 0.6 0
0.4 0.6 0
0.433333 0.6 0
0.466667 0.6 0
0.5 0.6 0
0.533333 0.6 0
0.566667 0.6 0
0.6 0.6 0
0.633333 0.6 0
0.666667 0.6 0
0.7 0.6 0
0.733333 0.6 0
0.766667 0.6 0
0.8 0.6 0
0.833333 0.6 0
0.866667 0.6 0
0.9 0.6 0
0.933333 0.6 0
0.966667 0.6 0
1 0.6 0
0 0.633333 0
0.0333333 0.633333 0
0.0666667 0.633333 0
0.1 0.633333 0
0.133333 0.633333 0
0.166667 0.633333 0
0.2 0.633333 0
0.233333 0.633333 0
0.266667 0.633333 0
[...]
    <PointData>
      <DataArray type="Float64" NumberOfComponents="3" Name="Velocity" format="ascii">
0 0 0
0 0 0
0 0 0
0 0 0
0 0 0
0 0 0
0 0 0
0 0 0
0 0 0
0 0 0
0 0 0
0 0 0
0 0 0
0 0 0
0 0 0
0 0 0
0 0 0
0 0 0
0 0 0
0 0 0
0 0 0
0 0 0
0 0 0
0 0 0
0 0 0
0 0 0
0 0 0
0 0 0
0 0 0
0 0 0
0 0 0
0 0 0
0.0247475 -0.0219277 0
0.0388455 -0.00675815 0
0.0267128 0.028297 0
-0.0272318 0.0660264 0
-0.0983845 0.0942799 0
-0.162141 0.100908 0
-0.215576 0.0950495 0
-0.255763 0.0858461 0
-0.284778 0.0746068 0
-0.3047 0.0626408 0
-0.317883 0.0506595 0
-0.326679 0.0393741 0
-0.331943 0.0286568 0
-0.33453 0.0183799 0
-0.335093 0.0081304 0
-0.334283 -0.00250499 0
-0.33179 -0.0134682 0
-0.3273 -0.0247013 0
-0.319577 -0.0365925 0
-0.307385 -0.0495305 0
-0.288558 -0.0630818 0
-0.260927 -0.0768133 0
-0.221862 -0.0883386 0
-0.168733 -0.0952715 0
-0.104855 -0.0900281 0
-0.0335466 -0.0650243 0
0.0210321 -0.0303428 0
0.0347191 0.00393367 0
0.0226599 0.0199873 0
0 0 0
0 0 0
0.0106386 -0.0388707 0
-0.00863809 0.0166468 0
-0.0562244 0.103782 0
-0.130515 0.159765 0
-0.211425 0.185806 0
-0.27887 0.183118 0
-0.332917 0.164746 0
-0.373633 0.143738 0
-0.402999 0.12162 0
-0.422997 0.0999182 0
-0.436035 0.0792033 0
-0.44452 0.0600463 0
-0.449228 0.0421621 0
-0.450932 0.0252654 0
-0.450326 0.00867609 0
-0.448103 -0.00828612 0
-0.444019 -0.0258134 0
-0.43783 -0.0440979 0
-0.428357 -0.0638168 0
-0.414424 -0.0856472 0
-0.394012 -0.109231 0
-0.365106 -0.134209 0
-0.325197 -0.157978 0
-0.271777 -0.177937 0
-0.20545 -0.181991 0
-0.126825 -0.15805 0
-0.054882 -0.104765 0
-0.00860302 -0.020786 0
0.0102712 0.0340733 0
0 0 0
0 0 0
-0.0221406 -0.0318064 0
-0.0863104 0.0652394 0
-0.16687 0.191884 0
-0.238182 0.248873 0
-0.296994 0.257865 0
-0.340056 0.240516 0
-0.371479 0.209662 0
-0.395374 0.178137 0
-0.412594 0.147342 0
-0.423988 0.118676 0
-0.431036 0.092248 0
-0.435213 0.0681651 0
-0.436864 0.0459891 0
-0.436328 0.0252816 0
-0.43406 0.00522606 0
-0.430513 -0.014994 0
-0.425642 -0.0359075 0
-0.419404 -0.0580437 0
-0.411228 -0.0822426 0
-0.400548 -0.109344 0
-0.386426 -0.139277 0
-0.367925 -0.171969 0
-0.343852 -0.205437 0
-0.313014 -0.237698 0
-0.27212 -0.255643 0
-0.217884 -0.246164 0
-0.152486 -0.190022 0
-0.0781099 -0.0679747 0
-0.0191494 0.0265187 0
0 0 0
0 0 0
-0.0534039 0.0182883 0
-0.138031 0.134044 0
-0.223284 0.25803 0
-0.278566 0.301009 0
-0.312965 0.293741 0
-0.335569 0.266988 0
-0.350718 0.230369 0
-0.362749 0.193505 0
-0.371491 0.158074 0
-0.37677 0.125759 0
-0.379464 0.0964103 0
-0.380447 0.0698786 0
-0.379859 0.0456108 0
-0.377838 0.0230535 0
-0.374652 0.00136931 0
-0.370565 -0.0202791 0
-0.365613 -0.0426226 0
-0.359834 -0.0663921 0
-0.353077 -0.0924393 0
-0.345194 -0.121616 0
-0.335864 -0.154053 0
-0.324772 -0.189879 0
-0.311674 -0.227234 0
-0.296325 -0.264258 0
-0.275201 -0.290735 0
-0.244772 -0.296452 0
-0.196525 -0.252869 0
-0.121945 -0.131448 0
-0.0475853 -0.0184161 0
0 0 0
0 0 0
-0.0759217 0.0842848 0
-0.163048 0.20532 0
-0.236908 0.306059 0
-0.273033 0.329457 0
-0.287198 0.308396 0
-0.295182 0.275758 0
-0.299931 0.237133 0
-0.304395 0.198109 0
-0.307753 0.160645 0
-0.309185 0.126699 0
-0.309168 0.0960383 0
-0.308179 0.0684295 0
-0.306269 0.0432501 0
-0.303489 0.019877 0
-0.299976 -0.00249456 0
-0.295868 -0.0246692 0
-0.291224 -0.047464 0
-0.286105 -0.0716962 0
-0.280616 -0.0981542 0
-0.274864 -0.127627 0
-0.268874 -0.160345 0
-0.262671 -0.196543 0
-0.256547 -0.234335 0
-0.250792 -0.271834 0
-0.243169 -0.303038 0
-0.23144 -0.321943 0
-0.20211 -0.296601 0
-0.141687 -0.195065 0
-0.0682796 -0.0764815 0
0 0 0
0 0 0
-0.0824645 0.139055 0
-0.160608 0.261325 0
-0.219184 0.339808 0
-0.242947 0.347504 0
-0.247554 0.316793 0
-0.248662 0.280055 0
-0.248413 0.240221 0
-0.248949 0.200221 0
-0.249444 0.161882 0
-0.249073 0.127028 0
-0.247994 0.09548 0
-0.246367 0.0670604 0
-0.244151 0.0411295 0
-0.241305 0.0170476 0
-0.237906 -0.00596599 0
-0.23403 -0.0286918 0
-0.229764 -0.051937 0
-0.225197 -0.0765088 0
-0.220555 -0.103134 0
-0.216065 -0.13254 0
-0.212004 -0.164945 0
-0.208647 -0.200568 0
-0.206357 -0.237703 0
-0.205493 -0.274643 0
-0.204503 -0.308322 0
-0.201837 -0.33567 0
-0.184353 -0.324515 0
-0.138913 -0.242684 0
-0.0744754 -0.123428 0
0 0 0
0 0 0
-0.079207 0.180005 0
-0.143631 0.301086 0
-0.186769 0.360802 0
-0.202115 0.356713 0
-0.202468 0.319655 0
-0.200626 0.280463 0
-0.198243 0.240264 0
-0.196973 0.200186 0
-0.19617 0.161785 0
-0.195184 0.126618 0
-0.193961 0.0945936 0
-0.192442 0.0656207 0
-0.190501 0.0390974 0
-0.188011 0.0144215 0
-0.185023 -0.00915663 0
-0.181587 -0.0323866 0
-0.177816 -0.0560164 0
-0.17382 -0.0807937 0
-0.169877 -0.107368 0
-0.166263 -0.13639 0
-0.16341 -0.168022 0
-0.161751 -0.202428 0
-0.161553 -0.238168 0
-0.163083 -0.273798 0
-0.165187 -0.308269 0
-0.166709 -0.340529 0
-0.15693 -0.339646 0
-0.125132 -0.274692 0
-0.0724451 -0.157524 0
0 0 0
0 0 0
-0.0723239 0.20454 0
-0.125038 0.32363 0
-0.156319 0.370567 0
-0.164343 0.358647 0
-0.160378 0.317702 0
-0.15569 0.277566 0
-0.151501 0.237896 0
-0.149033 0.198348 0
-0.147538 0.160354 0
-0.14627 0.125342 0
-0.145084 0.0932368 0
-0.143834 0.0639596 0
-0.142318 0.0370018 0
-0.140332 0.0118547 0
-0.137908 -0.0121782 0
-0.135076 -0.0357933 0
-0.131959 -0.0596767 0
-0.128682 -0.0845146 0
-0.125564 -0.110845 0
-0.122924 -0.139207 0
-0.121252 -0.169743 0
-0.121033 -0.202598 0
-0.122584 -0.236559 0
-0.126219 -0.270412 0
-0.131203 -0.304562 0
-0.136802 -0.339413 0
-0.133518 -0.34503 0
-0.111852 -0.291476 0
-0.0684613 -0.177037 0
0 0 0
0 0 0
-0.0644138 0.21564 0
-0.107602 0.332067 0
-0.130004 0.37113 0
-0.132058 0.354677 0
-0.124235 0.31195 0
-0.117004 0.272187 0
-0.111267 0.233859 0
-0.107925 0.195438 0
-0.106036 0.158293 0
-0.104656 0.123796 0
-0.103602 0.0918874 0
-0.102691 0.0625053 0
-0.101665 0.0352532 0
-0.100263 0.00973369 0
-0.0984962 -0.0146761 0
-0.0963758 -0.0385993 0
-0.0940289 -0.0626512 0
-0.0915824 -0.0874474 0
-0.0893827 -0.113406 0
-0.0877756 -0.140945 0
-0.0872489 -0.170191 0
-0.08829 -0.201267 0
-0.0913239 -0.233144 0
-0.0967757 -0.264792 0
-0.104225 -0.297734 0
-0.11325 -0.333495 0
-0.114936 -0.342787 0
-0.100368 -0.296325 0
-0.0639285 -0.185074 0
0 0 0
0 0 0
-0.0580754 0.216285 0
-0.0940982 0.329504 0
-0.109994 0.364515 0
-0.107688 0.346179 0
-0.0969917 0.303416 0
-0.0877182 0.265149 0
-0.0806198 0.228897 0
-0.0764491 0.192183 0
-0.0741501 0.156309 0
-0.0726668 0.122577 0
-0.0717525 0.0910229 0
-0.0711609 0.0616862 0
-0.0706052 0.0342617 0
-0.0697986 0.0084448 0
-0.0687253 -0.016296 0
-0.0673695 -0.0404922 0
-0.0658589 -0.0646729 0
-0.0643213 -0.0893676 0
-0.063101 -0.114891 0
-0.0625421 -0.141558 0
-0.0631216 -0.169443 0
-0.0653164 -0.198621 0
-0.0696463 -0.22819 0
-0.0766309 -0.257245 0
-0.085926 -0.288319 0
-0.0971871 -0.323942 0
-0.102006 -0.335039 0
-0.0919735 -0.292531 0
-0.0602513 -0.184744 0
0 0 0
0 0 0
-0.0537091 0.209464 0
-0.0851133 0.319197 0
-0.0968806 0.352947 0
-0.0916792 0.334464 0
-0.0789356 0.292716 0
-0.0680765 0.256669 0
-0.0598222 0.223012 0
-0.0548932 0.188438 0
-0.0521759 0.154175 0
-0.0505565 0.121456 0
-0.0497337 0.0904473 0
-0.0494061 0.0613181 0
-0.0492686 0.0338547 0
-0.0490162 0.00784376 0
-0.0486093 -0.0171471 0
-0.0480081 -0.0415504 0
-0.047332 -0.0658 0
-0.0467005 -0.0903301 0
-0.0464433 -0.115363 0
-0.0468902 -0.141121 0
-0.0484923 -0.167612 0
-0.0517008 -0.194842 0
-0.0571061 -0.222005 0
-0.0652987 -0.248299 0
-0.075887 -0.277186 0
-0.0884793 -0.31213 0
-0.0949881 -0.32379 0
-0.0873257 -0.282821 0
-0.0581203 -0.178475 0
0 0 0
0 0 0
-0.0517156 0.198164 0
-0.0812344 0.304401 0
-0.0912564 0.33865 0
-0.0844811 0.320848 0
-0.0703544 0.280463 0
-0.0583218 0.246964 0
-0.0491352 0.216208 0
-0.0435464 0.184053 0
-0.0404096 0.151664 0
-0.038579 0.120207 0
-0.0377431 0.0899646 0
-0.03759 0.0612169 0
-0.0377848 0.0338591 0
-0.0379925 0.00778627 0
-0.0381621 -0.0173386 0
-0.0382429 -0.0418523 0
-0.0383308 -0.0660906 0
-0.038522 -0.0903896 0
-0.0391344 -0.114885 0
-0.0404861 -0.139714 0
-0.042983 -0.16481 0
-0.0470311 -0.190107 0
-0.0532586 -0.214898 0
-0.0622937 -0.238479 0
-0.073688 -0.265205 0
-0.086993 -0.299432 0
-0.0941456 -0.311044 0
-0.0870822 -0.269923 0
-0.0582261 -0.168698 0
0 0 0
0 0 0
-0.0521204 0.184079 0
-0.0821222 0.286987 0
-0.0923546 0.322978 0
-0.0851667 0.306303 0
-0.0703179 0.267349 0
-0.0575674 0.236503 0
-0.0477415 0.20878 0
-0.0416663 0.179196 0
-0.0381845 0.148849 0
-0.0361391 0.118837 0
-0.0352385 0.0895368 0
-0.0351914 0.0613259 0
-0.0356374 0.0342111 0
-0.0362159 0.00819898 0
-0.0368689 -0.0169522 0
-0.037538 -0.041484 0
-0.0382929 -0.065638 0
-0.039203 -0.0896554 0
-0.0405673 -0.113589 0
-0.042685 -0.13749 0
-0.0459068 -0.161227 0
-0.0505838 -0.184666 0
-0.0573617 -0.207195 0
-0.0668859 -0.228201 0
-0.07863 -0.252873 0
-0.0920674 -0.286401 0
-0.0989434 -0.29757 0
-0.0910034 -0.255163 0
-0.0605785 -0.156775 0
0 0 0
0 0 0
-0.0549492 0.168903 0
-0.087437 0.268823 0
-0.0994086 0.307281 0
-0.0928091 0.291801 0
-0.0778959 0.254064 0
-0.0649263 0.225751 0
-0.0548235 0.201021 0
-0.0485105 0.174033 0
-0.0448342 0.145804 0
-0.0426415 0.11735 0
-0.0416779 0.089126 0
-0.0416892 0.0615887 0
-0.04231 0.0348465 0
-0.043175 0.00900854 0
-0.0442143 -0.0160695 0
-0.0453576 -0.0405317 0
-0.046656 -0.0645352 0
-0.0481607 -0.088237 0
-0.0501349 -0.111604 0
-0.0528417 -0.134604 0
-0.0565767 -0.157053 0
-0.0616357 -0.17877 0
-0.0686736 -0.199223 0
-0.0783457 -0.21788 0
-0.0900143 -0.240687 0
-0.103042 -0.273588 0
-0.108847 -0.284133 0
-0.0988493 -0.239872 0
-0.0651874 -0.144072 0
0 0 0
0 0 0
-0.0598061 0.15347 0
-0.0967539 0.251125 0
-0.112071 0.292775 0
-0.106984 0.278227 0
-0.0925323 0.241113 0
-0.0797519 0.21506 0
-0.0696837 0.193227 0
-0.0633683 0.168774 0
-0.059655 0.142649 0
-0.0573931 0.115798 0
-0.0563843 0.088732 0
-0.0564301 0.061963 0
-0.0571709 0.0356936 0
-0.0582475 0.0101269 0
-0.0595841 -0.0147901 0
-0.061105 -0.0391101 0
-0.0628412 -0.0629098 0
-0.0648241 -0.0862656 0
-0.0672811 -0.109074 0
-0.0704399 -0.131232 0
-0.0745219 -0.152507 0
-0.0797489 -0.172665 0
-0.0867904 -0.19126 0
-0.0963158 -0.207843 0
-0.107545 -0.229081 0
-0.119696 -0.26164 0
-0.123606 -0.271566 0
-0.11011 -0.2249 0
-0.0714829 -0.131194 0
0 0 0
0 0 0
-0.066295 0.13861 0
-0.109648 0.235109 0
-0.129994 0.28067 0
-0.127269 0.266465 0
-0.113671 0.228999 0
-0.101398 0.204779 0
-0.0916247 0.185693 0
-0.0855287 0.163629 0
-0.0819429 0.139504 0
-0.0797009 0.114233 0
-0.0786807 0.0883546 0
-0.0787608 0.062407 0
-0.0795885 0.0366806 0
-0.080811 0.0114659 0
-0.0823642 -0.0132135 0
-0.0841837 -0.0373339 0
-0.0862696 -0.0608889 0
-0.0886219 -0.0838721 0
-0.0914499 -0.106141 0
-0.0949629 -0.127552 0
-0.0992715 -0.147805 0
-0.104486 -0.166599 0
-0.111308 -0.183584 0
-0.120439 -0.198412 0
-0.130925 -0.218485 0
-0.141812 -0.251205 0
-0.142971 -0.260701 0
-0.124276 -0.2111 0
-0.0788954 -0.11875 0
0 0 0
0 0 0
-0.0754433 0.125277 0
-0.126747 0.221414 0
-0.152981 0.270994 0
-0.153216 0.256601 0
-0.140898 0.218073 0
-0.129475 0.195248 0
-0.120263 0.178629 0
-0.114579 0.158722 0
-0.111248 0.136433 0
-0.109096 0.112672 0
-0.108087 0.0879734 0
-0.108188 0.0628741 0
-0.109064 0.0377429 0
-0.110376 0.0129491 0
-0.112081 -0.0114176 0
-0.11413 -0.0352677 0
-0.116498 -0.0585264 0
-0.119159 -0.0811192 0
-0.122294 -0.10287 0
-0.126089 -0.123602 0
-0.130546 -0.142981 0
-0.135668 -0.160674 0
-0.142124 -0.176404 0
-0.150585 -0.189894 0
-0.159999 -0.209365 0
-0.169314 -0.243039 0
-0.167191 -0.252614 0
-0.142292 -0.19979 0
-0.0885751 -0.107831 0
0 0 0
0 0 0
-0.0882783 0.114427 0
-0.14868 0.21068 0
-0.180836 0.263773 0
-0.184378 0.248724 0
-0.1738 0.208683 0
-0.163595 0.186806 0
-0.155215 0.17225 0
-0.150107 0.154178 0
-0.147122 0.133501 0
-0.145109 0.11113 0
-0.144123 0.0875681 0
-0.14422 0.0633175 0
-0.145097 0.0388157 0
-0.146455 0.0145001 0
-0.148261 -0.00948016 0
-0.150481 -0.0329758 0
-0.153085 -0.0558759 0
-0.156039 -0.0780698 0
-0.159467 -0.0993272 0
-0.163496 -0.119418 0
-0.168065 -0.138065 0
-0.173115 -0.154993 0
-0.179137 -0.169927 0
-0.186622 -0.182592 0
-0.194607 -0.202183 0
-0.202126 -0.237895 0
-0.196513 -0.24838 0
-0.165102 -0.19229 0
-0.101672 -0.0995285 0
0 0 0
0 0 0
-0.102136 0.105907 0
-0.173557 0.203109 0
-0.21352 0.259598 0
-0.221286 0.243363 0
-0.212756 0.201139 0
-0.203832 0.179661 0
-0.196235 0.166726 0
-0.191689 0.150134 0
-0.189032 0.130805 0
-0.187106 0.109664 0
-0.186073 0.0871592 0
-0.186098 0.0637406 0
-0.186916 0.0398946 0
-0.18826 0.0161075 0
-0.190114 -0.00742281 0
-0.192459 -0.0304984 0
-0.195261 -0.0529813 0
-0.198487 -0.0747331 0
-0.202218 -0.0955 0
-0.206534 -0.115028 0
-0.211279 -0.133117 0
-0.216293 -0.149567 0
-0.221939 -0.164161 0
-0.228579 -0.176678 0
-0.235087 -0.197326 0
-0.240335 -0.236309 0
-0.230126 -0.248416 0
-0.190261 -0.188435 0
-0.115349 -0.0933139 0
0 0 0
0 0 0
-0.114354 0.0995644 0
-0.199487 0.198907 0
-0.250994 0.25906 0
-0.264471 0.241052 0
-0.258149 0.195751 0
-0.250258 0.174023 0
-0.243081 0.162227 0
-0.238901 0.146721 0
-0.236448 0.128443 0
-0.23445 0.108329 0
-0.233219 0.086767 0
-0.233069 0.0641467 0
-0.233749 0.0409752 0
-0.235008 0.0177601 0
-0.236852 -0.00526732 0
-0.239283 -0.027876 0
-0.242257 -0.0498862 0
-0.245728 -0.0711186 0
-0.249794 -0.0913751 0
-0.254554 -0.110458 0
-0.259636 -0.128193 0
-0.264669 -0.144406 0
-0.270127 -0.159112 0
-0.276485 -0.172323 0
-0.281773 -0.195178 0
-0.284026 -0.238814 0
-0.267217 -0.25314 0
-0.215319 -0.188063 0
-0.126768 -0.0886588 0
0 0 0
0 0 0
-0.128865 0.0982356 0
-0.228572 0.20184 0
-0.291857 0.265394 0
-0.31146 0.243475 0
-0.30766 0.192629 0
-0.300736 0.169398 0
-0.29372 0.158171 0
-0.289644 0.143335 0
-0.287147 0.125836 0
-0.284869 0.106618 0
-0.283272 0.0859764 0
-0.282815 0.0642053 0
-0.283257 0.0417996 0
-0.284355 0.0192541 0
-0.286129 -0.00316518 0
-0.288598 -0.0251919 0
-0.29171 -0.046611 0
-0.295409 -0.0672073 0
-0.299818 -0.0868598 0
-0.305058 -0.105447 0
-0.310579 -0.122906 0
-0.315834 -0.139172 0
-0.321338 -0.154488 0
-0.32761 -0.169094 0
-0.331792 -0.195652 0
-0.331026 -0.246822 0
-0.307548 -0.265784 0
-0.243594 -0.195713 0
-0.1406 -0.0894918 0
0 0 0
0 0 0
-0.149606 0.104755 0
-0.262913 0.215674 0
-0.334708 0.281835 0
-0.359778 0.252319 0
-0.35897 0.191885 0
-0.353128 0.165293 0
-0.346121 0.153976 0
-0.341815 0.139369 0
-0.338907 0.122407 0
-0.336093 0.104027 0
-0.333942 0.084372 0
-0.333022 0.0635858 0
-0.333104 0.0421098 0
-0.333957 0.0203853 0
-0.335599 -0.0012679 0
-0.338046 -0.0225298 0
-0.341255 -0.0431755 0
-0.34518 -0.0629803 0
-0.349914 -0.081861 0
-0.355551 -0.0997344 0
-0.361553 -0.116867 0
-0.367378 -0.133527 0
-0.373209 -0.149996 0
-0.379227 -0.166557 0
-0.382266 -0.198659 0
-0.379161 -0.261747 0
-0.350883 -0.289582 0
-0.278404 -0.215924 0
-0.161512 -0.0997413 0
0 0 0
0 0 0
-0.16816 0.111525 0
-0.297322 0.231546 0
-0.380217 0.302109 0
-0.409575 0.265259 0
-0.409494 0.194534 0
-0.404069 0.163471 0
-0.39709 0.150993 0
-0.392346 0.136027 0
-0.38879 0.119311 0
-0.385375 0.101582 0
-0.382664 0.0828135 0
-0.381221 0.0629762 0
-0.380864 0.0424287 0
-0.381408 0.0215291 0
-0.382858 0.00064655 0
-0.385217 -0.0198499 0
-0.388444 -0.0397292 0
-0.392499 -0.0587604 0
-0.397416 -0.0769106 0
-0.403228 -0.0941471 0
-0.409493 -0.111071 0
-0.415769 -0.128283 0
-0.421889 -0.146432 0
-0.427685 -0.166167 0
-0.430368 -0.204854 0
-0.427151 -0.279862 0
-0.395378 -0.316067 0
-0.312396 -0.238346 0
-0.180003 -0.111418 0
0 0 0
0 0 0
-0.176113 0.110945 0
-0.32661 0.240594 0
-0.429052 0.319938 0
-0.460998 0.27997 0
-0.456646 0.201589 0
-0.450192 0.165694 0
-0.443434 0.150574 0
-0.438169 0.134516 0
-0.43386 0.117701 0
-0.429969 0.100311 0
-0.426871 0.0821606 0
-0.424944 0.0630645 0
-0.424111 0.043279 0
-0.424301 0.0230608 0
-0.425501 0.0028002 0
-0.427697 -0.0171124 0
-0.430828 -0.0364211 0
-0.434828 -0.0548703 0
-0.439659 -0.0725406 0
-0.445282 -0.0895129 0
-0.451338 -0.106509 0
-0.457472 -0.124253 0
-0.463523 -0.144591 0
-0.469333 -0.169374 0
-0.473273 -0.214894 0
-0.473716 -0.297445 0
-0.439189 -0.336774 0
-0.33822 -0.25263 0
-0.18657 -0.116532 0
0 0 0
0 0 0
-0.168597 0.120669 0
-0.334892 0.256417 0
-0.457692 0.338 0
-0.495802 0.296175 0
-0.491284 0.213144 0
-0.486195 0.171108 0
-0.480728 0.150754 0
-0.475074 0.13277 0
-0.469703 0.115865 0
-0.465089 0.0987535 0
-0.46138 0.0811382 0
-0.458725 0.0627241 0
-0.457178 0.0436901 0
-0.456789 0.024215 0
-0.457547 0.00466788 0
-0.45944 -0.0145823 0
-0.462368 -0.0332891 0
-0.466228 -0.051206 0
-0.470815 -0.068498 0
-0.475927 -0.0853302 0
-0.481387 -0.102532 0
-0.487015 -0.120931 0
-0.492258 -0.144106 0
-0.496558 -0.175636 0
-0.499578 -0.228823 0
-0.50098 -0.316972 0
-0.461519 -0.358827 0
-0.341951 -0.273133 0
-0.176653 -0.130115 0
0 0 0
0 0 0
-0.140746 0.15835 0
-0.306282 0.292615 0
-0.442613 0.358972 0
-0.495743 0.313598 0
-0.504266 0.229293 0
-0.506777 0.178856 0
-0.504548 0.149571 0
-0.49885 0.128725 0
-0.491909 0.112092 0
-0.48595 0.09545 0
-0.481004 0.078471 0
-0.477103 0.0608286 0
-0.474395 0.0426911 0
-0.473023 0.0242264 0
-0.473016 0.00572444 0
-0.474398 -0.0125249 0
-0.477026 -0.0303711 0
-0.480757 -0.0476638 0
-0.485055 -0.0645302 0
-0.489381 -0.0810979 0
-0.493939 -0.0984856 0
-0.498931 -0.117812 0
-0.502241 -0.14461 0
-0.501749 -0.184411 0
-0.497882 -0.24669 0
-0.491064 -0.340921 0
-0.441567 -0.389347 0
-0.309664 -0.31421 0
-0.145694 -0.167198 0
0 0 0
0 0 0
-0.0782035 0.181736 0
-0.193563 0.299041 0
-0.300553 0.341427 0
-0.353651 0.29841 0
-0.377054 0.224079 0
-0.394959 0.172524 0
-0.405887 0.138232 0
-0.408359 0.11569 0
-0.406342 0.0995228 0
-0.403806 0.0843548 0
-0.400999 0.0693081 0
-0.398173 0.0535048 0
-0.395741 0.0372833 0
-0.394118 0.0209819 0
-0.393379 0.00476746 0
-0.3936 -0.0111934 0
-0.39466 -0.0269839 0
-0.396438 -0.0426875 0
-0.397849 -0.0582062 0
-0.397808 -0.0734422 0
-0.396684 -0.0900705 0
-0.394845 -0.109766 0
-0.38859 -0.138321 0
-0.374219 -0.181526 0
-0.356378 -0.243728 0
-0.339715 -0.329273 0
-0.2952 -0.3758 0
-0.193804 -0.32095 0
-0.0804347 -0.187942 0
0 0 0
2.77334e-30 0 0
0.0333877 0.148574 0
0.0504855 0.225548 0
0.0517512 0.243943 0
0.037643 0.216783 0
0.00889391 0.171543 0
-0.0337628 0.135699 0
-0.0757424 0.107945 0
-0.10246 0.086975 0
-0.118866 0.0712978 0
-0.129911 0.0594221 0
-0.136623 0.0487989 0
-0.14003 0.0368795 0
-0.141195 0.024468 0
-0.141184 0.0123686 0
-0.140106 0.000594542 0
-0.138076 -0.0108412 0
-0.135125 -0.0224445 0
-0.131288 -0.0347213 0
-0.124669 -0.0470951 0
-0.113376 -0.0589894 0
-0.0973131 -0.072985 0
-0.0763833 -0.0916629 0
-0.046426 -0.117459 0
-0.00328015 -0.152809 0
0.0367407 -0.195172 0
0.057323 -0.242006 0
0.0617193 -0.265649 0
0.0531824 -0.23844 0
0.032385 -0.152512 0
2.77334e-30 0 0
0.25 0 0
0.343099 0.0807127 0
0.44272 0.112434 0
0.517527 0.11423 0
0.53618 0.105163 0
0.514328 0.0905584 0
0.46762 0.0757383 0
0.416137 0.0610784 0
0.379956 0.0469537 0
0.355066 0.035447 0
0.337451 0.0286408 0
0.325813 0.023508 0
0.318852 0.0170216 0
0.315349 0.0100914 0
0.314086 0.00362761 0
0.314965 -0.00244454 0
0.317886 -0.00819961 0
0.322715 -0.0142755 0
0.329317 -0.0213103 0
0.339581 -0.0285689 0
0.355398 -0.0353163 0
0.37723 -0.0440285 0
0.405537 -0.0571812 0
0.443391 -0.0740199 0
0.493861 -0.0937901 0
0.537019 -0.110702 0
0.552933 -0.118966 0
0.527387 -0.12001 0
0.446162 -0.115262 0
0.342589 -0.0826253 0
0.25 0 0
1 0 0
1 0 0
1 0 0
1 0 0
1 0 0
1 0 0
1 0 0
1 0 0
1 0 0
1 0 0
1 0 0
1 0 0
1 0 0
1 0 0
1 0 0
1 0 0
1 0 0
1 0 0
1 0 0
1 0 0
1 0 0
1 0 0
1 0 0
1 0 0
1 0 0
1 0 0
1 0 0
1 0 0
1 0 0
1 0 0
1 0 0
      </DataArray> 
      <DataArray type="Float64" NumberOfComponents="3" Name="Real Velocity" format="ascii">
0 0 0
0 0 0
0 0 0
0 0 0
0 0 0
0 0 0
0 0 0
0 0 0
0 0 0
0 0 0
0 0 0
0 0 0
0 0 0
0 0 0
0 0 0
0 0 0
0 0 0
0 0 0
0 0 0
0 0 0
0 0 0
0 0 0
0 0 0
0 0 0
0 0 0
0 0 0
0 0 0
0 0 0
0 0 0
0 0 0
0 0 0
0 0 0
0.0247475 -0.0219277 0
0.0388455 -0.00675815 0
0.0267128 0.028297 0
-0.0272318 0.0660264 0
-0.0983845 0.0942799 0
-0.162141 0.100908 0
-0.215576 0.0950495 0
-0.255763 0.0858461 0
-0.284778 0.0746068 0
-0.3047 0.0626408 0
-0.317883 0.0506595 0
-0.326679 0.0393741 0
-0.331943 0.0286568 0
-0.33453 0.0183799 0
-0.335093 0.0081304 0
-0.334283 -0.00250499 0
-0.33179 -0.0134682 0
-0.3273 -0.0247013 0