<?xml version="1.0"?>
<VTKFile type="UnstructuredGrid">
  <UnstructuredGrid>
  <Piece NumberOfPoints="961"  NumberOfCells="225">
    <Points>
      <DataArray type="Float64" NumberOfComponents="3" format="ascii">
0 0 0
0.0333333 0 0
0.0666667 0 0
0.1 0 0
0.133333 0 0
0.166667 0 0
0.2 0 0
0.233333 0 0
0.266667 0 0
0.3 0 0
0.333333 0 0
0.366667 0 0
0.4 0 0
0.433333 0 0
0.466667 0 0
0.5 0 0
0.533333 0 0
0.566667 0 0
0.6 0 0
0.633333 0 0
0.666667 0 0
0.7 0 0
0.733333 0 0
0.766667 0 0
0.8 0 0
0.833333 0 0
0.866667 0 0
0.9 0 0
0.933333 0 0
0.966667 0 0
1 0 0
0 0.0333333 0
0.0333333 0.0333333 0
0.0666667 0.0333333 0
0.1 0.0333333 0
0.133333 0.0333333 0
0.166667 0.0333333 0
0.2 0.0333333 0
0.233333 0.0333333 0
0.266667 0.0333333 0
0.3 0.0333333 0
0.333333 0.0333333 0
0.366667 0.0333333 0
0.4 0.0333333 0
0.433333 0.0333333 0
0.466667 0.0333333 0
0.5 0.0333333 0
0.533333 0.0333333 0
0.566667 0.0333333 0
0.6 0.0333333 0
0.633333 0.0333333 0
0.666667 0.0333333 0
0.7 0.0333333 0
0.733333 0.0333333 0
0.766667 0.0333333 0
0.8 0.0333333 0
0.833333 0.0333333 0
0.866667 0.0333333 0
0.9 0.0333333 0
0.933333 0.0333333 0
0.966667 0.0333333 0
1 0.0333333 0
0 0.0666667 0
0.0333333 0.0666667 0
0.0666667 0.0666667 0
0.1 0.0666667 0
0.133333 0.0666667 0
0.166667 0.0666667 0
0.2 0.0666667 0
0.233333 0.0666667 0
0.266667 0.0666667 0
0.3 0.0666667 0
0.333333 0.0666667 0
0.366667 0.0666667 0
0.4 0.0666667 0
0.433333 0.0666667 0
0.466667 0.0666667 0
0.5 0.0666667 0
0.533333 0.0666667 0
0.566667 0.0666667 0
0.6 0.0666667 0
0.633333 0.0666667 0
0.666667 0.0666667 0
0.7 0.0666667 0
0.733333 0.0666667 0
0.766667 0.0666667 0
0.8 0.0666667 0
0.833333 0.0666667 0
0.866667 0.0666667 0
0.9 0.0666667 0
0.933333 0.0666667 0
0.966667 0.0666667 0
1 0.0666667 0
0 0.1 0
0.0333333 0.1 0
0.0666667 0.1 0
0.1 0.1 0
0.133333 0.1 0
0.166667 0.1 0
0.2 0.1 0
0.233333 0.1 0
0.266667 0.1 0
0.3 0.1 0
0.333333 0.1 0
0.366667 0.1 0
0.4 0.1 0
0.433333 0.1 0
0.466667 0.1 0
0.5 0.1 0
0.533333 0.1 0
0.566667 0.1 0
0.6 0.1 0
0.633333 0.1 0
0.666667 0.1 0
0.7 0.1 0
0.733333 0.1 0
0.766667 0.1 0
0.8 0.1 0
0.833333 0.1 0
0.866667 0.1 0
0.9 0.1 0
0.933333 0.1 0
0.966667 0.1 0
1 0.1 0
0 0.133333 0
0.0333333 0.133333 0
0.0666667 0.133333 0
0.1 0.133333 0
0.133333 0.133333 0
0.166667 0.133333 0
0.2 0.133333 0
0.233333 0.133333 0
0.266667 0.133333 0
0.3 0.133333 0
0.333333 0.133333 0
0.366667 0.133333 0
0.4 0.133333 0
0.433333 0.133333 0
0.466667 0.133333 0
0.5 0.133333 0
0.533333 0.133333 0
0.566667 0.133333 0
0.6 0.133333 0
0.633333 0.133333 0
0.666667 0.133333 0
0.7 0.133333 0
0.733333 0.133333 0
0.766667 0.133333 0
0.8 0.133333 0
0.833333 0.133333 0
0.866667 0.133333 0
0.9 0.133333 0
0.933333 0.133333 0
0.966667 0.133333 0
1 0.133333 0
0 0.166667 0
0.0333333 0.166667 0
0.0666667 0.166667 0
0.1 0.166667 0
0.133333 0.166667 0
0.166667 0.166667 0
0.2 0.166667 0
0.233333 0.166667 0
0.266667 0.166667 0
0.3 0.166667 0
0.333333 0.166667 0
0.366667 0.166667 0
0.4 0.166667 0
0.433333 0.166667 0
0.466667 0.166667 0
0.5 0.166667 0
0.533333 0.166667 0
0.566667 0.166667 0
0.6 0.166667 0
0.633333 0.166667 0
0.666667 0.166667 0
0.7 0.166667 0
0.733333 0.166667 0
0.766667 0.166667 0
0.8 0.166667 0
0.833333 0.166667 0
0.866667 0.166667 0
0.9 0.166667 0
0.933333 0.166667 0
0.966667 0.166667 0
1 0.166667 0
0 0.2 0
0.0333333 0.2 0
0.0666667 0.2 0
0.1 0.2 0
0.133333 0.2 0
0.166667 0.2 0
0.2 0.2 0
0.233333 0.2 0
0.266667 0.2 0
0.3 0.2 0
0.333333 0.2 0
0.366667 0.2 0
0.4 0.2 0
0.433333 0.2 0
0.466667 0.2 0
0.5 0.2 0
0.533333 0.2 0
0.566667 0.2 0
0.6 0.2 0
0.633333 0.2 0
0.666667 0.2 0
0.7 0.2 0
0.733333 0.2 0
0.766667 0.2 0
0.8 0.2 0
0.833333 0.2 0
0.866667 0.2 0
0.9 0.2 0
0.933333 0.2 0
0.966667 0.2 0
1 0.2 0
0 0.233333 0
0.0333333 0.233333 0
0.0666667 0.233333 0
0.1 0.233333 0
0.133333 0.233333 0
0.166667 0.233333 0
0.2 0.233333 0
0.233333 0.233333 0
0.266667 0.233333 0
0.3 0.233333 0
0.333333 0.233333 0
0.366667 0.233333 0
0.4 0.233333 0
0.433333 0.233333 0
0.466667 0.233333 0
0.5 0.233333 0
0.533333 0.233333 0
0.566667 0.233333 0
0.6 0.233333 0
0.633333 0.233333 0
0.666667 0.233333 0
0.7 0.233333 0
0.733333 0.233333 0
0.766667 0.233333 0
0.8 0.233333 0
0.833333 0.233333 0
0.866667 0.233333 0
0.9 0.233333 0
0.933333 0.233333 0
0.966667 0.233333 0
1 0.233333 0
0 0.266667 0
0.0333333 0.266667 0
0.0666667 0.266667 0
0.1 0.266667 0
0.133333 0.266667 0
0.166667 0.266667 0
0.2 0.266667 0
0.233333 0.266667 0
0.266667 0.266667 0
0.3 0.266667 0
0.333333 0.266667 0
0.366667 0.266667 0
0.4 0.266667 0
0.433333 0.266667 0
0.466667 0.266667 0
0.5 0.266667 0
0.533333 0.266667 0
0.566667 0.266667 0
0.6 0.266667 0
0.633333 0.266667 0
0.666667 0.266667 0
0.7 0.266667 0
0.733333 0.266667 0
0.766667 0.266667 0
0.8 0.266667 0
0.833333 0.266667 0
0.866667 0.266667 0
0.9 0.266667 0
0.933333 0.266667 0
0.966667 0.266667 0
1 0.266667 0
0 0.3 0
0.0333333 0.3 0
0.0666667 0.3 0
0.1 0.3 0
0.133333 0.3 0
0.166667 0.3 0
0.2 0.3 0
0.233333 0.3 0
0.266667 0.3 0
0.3 0.3 0
0.333333 0.3 0
0.366667 0.3 0
0.4 0.3 0
0.433333 0.3 0
0.466667 0.3 0
0.5 0.3 0
0.533333 0.3 0
0.566667 0.3 0
0.6 0.3 0
0.633333 0.3 0
0.666667 0.3 0
0.7 0.3 0
0.733333 0.3 0
0.766667 0.3 0
0.8 0.3 0
0.833333 0.3 0
0.866667 0.3 0
0.9 0.3 0
0.933333 0.3 0
0.966667 0.3 0
1 0.3 0
0 0.333333 0
0.0333333 0.333333 0
0.0666667 0.333333 0
0.1 0.333333 0
0.133333 0.333333 0
0.166667 0.333333 0
0.2 0.333333 0
0.233333 0.333333 0
0.266667 0.333333 0
0.3 0.333333 0
0.333333 0.333333 0
0.366667 0.333333 0
0.4 0.333333 0
0.433333 0.333333 0
0.466667 0.333333 0
0.5 0.333333 0
0.533333 0.333333 0
0.566667 0.333333 0
0.6 0.333333 0
0.633333 0.333333 0
0.666667 0.333333 0
0.7 0.333333 0
0.733333 0.333333 0
0.766667 0.333333 0
0.8 0.333333 0
0.833333 0.333333 0
0.866667 0.333333 0
0.9 0.333333 0
0.933333 0.333333 0
0.966667 0.333333 0
1 0.333333 0
0 0.366667 0
0.0333333 0.366667 0
0.0666667 0.366667 0
0.1 0.366667 0
0.133333 0.366667 0
0.166667 0.366667 0
0.2 0.366667 0
0.233333 0.366667 0
0.266667 0.366667 0
0.3 0.366667 0
0.333333 0.366667 0
0.366667 0.366667 0
0.4 0.366667 0
0.433333 0.366667 0
0.466667 0.366667 0
0.5 0.366667 0
0.533333 0.366667 0
0.566667 0.366667 0
0.6 0.366667 0
0.633333 0.366667 0
0.666667 0.366667 0
0.7 0.366667 0
0.733333 0.366667 0
0.766667 0.366667 0
0.8 0.366667 0
0.833333 0.366667 0
0.866667 0.366667 0
0.9 0.366667 0
0.933333 0.366667 0
0.966667 0.366667 0
1 0.366667 0
0 0.4 0
0.0333333 0.4 0
0.0666667 0.4 0
0.1 0.4 0
0.133333 0.4 0
0.166667 0.4 0
0.2 0.4 0
0.233333 0.4 0
0.266667 0.4 0
0.3 0.4 0
0.333333 0.4 0
0.366667 0.4 0
0.4 0.4 0
0.433333 0.4 0
0.466667 0.4 0
0.5 0.4 0
0.533333 0.4 0
0.566667 0.4 0
0.6 0.4 0
0.633333 0.4 0
0.666667 0.4 0
0.7 0.4 0
0.733333 0.4 0
0.766667 0.4 0
0.8 0.4 0
0.833333 0.4 0
0.866667 0.4 0
0.9 0.4 0
0.933333 0.4 0
0.966667 0.4 0
1 0.4 0
0 0.433333 0
0.0333333 0.433333 0
0.0666667 0.433333 0
0.1 0.433333 0
0.133333 0.433333 0
0.166667 0.433333 0
0.2 0.433333 0
0.233333 0.433333 0
0.266667 0.433333 0
0.3 0.433333 0
0.333333 0.433333 0
0.366667 0.433333 0
0.4 0.433333 0
0.433333 0.433333 0
0.466667 0.433333 0
0.5 0.433333 0
0.533333 0.433333 0
0.566667 0.433333 0
0.6 0.433333 0
0.633333 0.433333 0
0.666667 0.433333 0
0.7 0.433333 0
0.733333 0.433333 0
0.766667 0.433333 0
0.8 0.433333 0
0.833333 0.433333 0
0.866667 0.433333 0
0.9 0.433333 0
0.933333 0.433333 0
0.966667 0.433333 0
1 0.433333 0
0 0.466667 0
0.0333333 0.466667 0
0.0666667 0.466667 0
0.1 0.466667 0
0.133333 0.466667 0
0.166667 0.466667 0
0.2 0.466667 0
0.233333 0.466667 0
0.266667 0.466667 0
0.3 0.466667 0
0.333333 0.466667 0
0.366667 0.466667 0
0.4 0.466667 0
0.433333 0.466667 0
0.466667 0.466667 0
0.5 0.466667 0
0.533333 0.466667 0
0.566667 0.466667 0
0.6 0.466667 0
0.633333 0.466667 0
0.666667 0.466667 0
0.7 0.466667 0
0.733333 0.466667 0
0.766667 0.466667 0
0.8 0.466667 0
0.833333 0.466667 0
0.866667 0.466667 0
0.9 0.466667 0
0.933333 0.466667 0
0.966667 0.466667 0
1 0.466667 0
0 0.5 0
0.0333333 0.5 0
0.0666667 0.5 0
0.1 0.5 0
0.133333 0.5 0
0.166667 0.5 0
0.2 0.5 0
0.233333 0.5 0
0.266667 0.5 0
0.3 0.5 0
0.333333 0.5 0
0.366667 0.5 0
0.4 0.5 0
0.433333 0.5 0
0.466667 0.5 0
0.5 0.5 0
0.533333 0.5 0
0.566667 0.5 0
0.6 0.5 0
0.633333 0.5 0
0.666667 0.5 0
0.7 0.5 0
0.733333 0.5 0
0.766667 0.5 0
0.8 0.5 0
0.833333 0.5 0
0.866667 0.5 0
0.9 0.5 0
0.933333 0.5 0
0.966667 0.5 0
1 0.5 0
0 0.533333 0
0.0333333 0.533333 0
0.0666667 0.533333 0
0.1 0.533333 0
0.133333 0.533333 0
0.166667 0.533333 0
0.2 0.533333 0
0.233333 0.533333 0
0.266667 0.533333 0
0.3 0.533333 0
0.333333 0.533333 0
0.366667 0.533333 0
0.4 0.533333 0
0.433333 0.533333 0
0.466667 0.533333 0
0.5 0.533333 0
0.533333 0.533333 0
0.566667 0.533333 0
0.6 0.533333 0
0.633333 0.533333 0
0.666667 0.533333 0
0.7 0.533333 0
0.733333 0.533333 0
0.766667 0.533333 0
0.8 0.533333 0
0.833333 0.533333 0
0.866667 0.533333 0
0.9 0.533333 0
0.933333 0.533333 0
0.966667 0.533333 0
1 0.533333 0
0 0.566667 0
0.0333333 0.566667 0
0.0666667 0.566667 0
0.1 0.566667 0
0.133333 0.566667 0
0.166667 0.566667 0
0.2 0.566667 0
0.233333 0.566667 0
0.266667 0.566667 0
0.3 0.566667 0
0.333333 0.566667 0
0.366667 0.566667 0
0.4 0.566667 0
0.433333 0.566667 0
0.466667 0.566667 0
0.5 0.566667 0
0.533333 0.566667 0
0.566667 0.566667 0
0.6 0.566667 0
0.633333 0.566667 0
0.666667 0.566667 0
0.7 0.566667 0
0.733333 0.566667 0
0.766667 0.566667 0
0.8 0.566667 0
0.833333 0.566667 0
0.866667 0.566667 0
0.9 0.566667 0
0.933333 0.566667 0
0.966667 0.566667 0
1 0.566667 0
0 0.6 0
0.0333333 0.6 0
0.0666667 0.6 0
0.1 0.6 0
0.133333 0.6 0
0.166667 0.6 0
0.2 0.6 0
0.233333 0.6 0
0.266667 0.6 0
0.3 0.6 0
0.333333 0.6 0
0.366667 0.6 0
0.4 0.6 0
0.433333 0.6 0
0.466667 0.6 0
0.5 0.6 0
0.533333 0.6 0
0.566667 0.6 0
0.6 0.6 0
0.633333 0.6 0
0.666667 0.6 0
0.7 0.6 0
0.733333 0.6 0
0.766667 0.6 0
0.8 0.6 0
0.833333 0.6 0
0.866667 0.6 0
0.9 0.6 0
0.933333 0.6 0
0.966667 0.6 0
1 0.6 0
0 0.633333 0
0.0333333 0.633333 0
0.0666667 0.633333 0
0.1 0.633333 0
0.133333 0.633333 0
0.166667 0.633333 0
0.2 0.633333 0
0.233333 0.633333 0
0.266667 0.633333 0
[...]
    <PointData>
      <DataArray type="Float64" NumberOfComponents="3" Name="Velocity" format="ascii">
0 0 0
0 0 0
0 0 0
0 0 0
0 0 0
0 0 0
0 0 0
0 0 0
0 0 0
0 0 0
0 0 0
0 0 0
0 0 0
0 0 0
0 0 0
0 0 0
0 0 0
0 0 0
0 0 0
0 0 0
0 0 0
0 0 0
0 0 0
0 0 0
0 0 0
0 0 0
0 0 0
0 0 0
0 0 0
0 0 0
0 0 0
0 0 0
-0.00049685 0.000449712 0
-0.00151706 0.00101204 0
-0.00320845 0.00156512 0
-0.00571884 0.00198709 0
-0.00869976 0.00223713 0
-0.0118027 0.00227443 0
-0.0149002 0.00217657 0
-0.0178646 0.00202114 0
-0.0205854 0.00180823 0
-0.0229521 0.00153788 0
-0.0249251 0.00123171 0
-0.0264647 0.000911337 0
-0.0275437 0.000577547 0
-0.028135 0.000231124 0
-0.0282308 -0.000120914 0
-0.0278234 -0.000471554 0
-0.0269296 -0.00080906 0
-0.025566 -0.0011217 0
-0.0237756 -0.0014096 0
-0.0216014 -0.00167287 0
-0.019098 -0.00188526 0
-0.0163203 -0.00202052 0
-0.0133922 -0.00209201 0
-0.0104376 -0.00211311 0
-0.00755476 -0.00201747 0
-0.00484154 -0.00173874 0
-0.00260531 -0.00131973 0
-0.00115338 -0.000803245 0
-0.000335146 -0.000319823 0
0 0 0
0 0 0
-0.000762378 0.00117265 0
-0.00321182 0.00289667 0
-0.00703423 0.00460828 0
-0.0119155 0.00574368 0
-0.0174271 0.0063674 0
-0.0231406 0.00654394 0
-0.0287964 0.00637205 0
-0.0341349 0.00595047 0
-0.0390076 0.00533268 0
-0.0432662 0.00457214 0
-0.0468309 0.00370544 0
-0.0496221 0.00276917 0
-0.0515838 0.00177619 0
-0.0526601 0.000739356 0
-0.0528353 -0.000316045 0
-0.052094 -0.00136474 0
-0.0504625 -0.00237756 0
-0.0479674 -0.00332532 0
-0.0446931 -0.00418696 0
-0.0407241 -0.00494144 0
-0.0361774 -0.00555585 0
-0.0311697 -0.00599728 0
-0.0258671 -0.00622541 0
-0.020436 -0.00619988 0
-0.0151324 -0.00586503 0
-0.0102126 -0.00516517 0
-0.00597727 -0.00404519 0
-0.00272683 -0.00244995 0
-0.000666138 -0.00092103 0
0 0 0
0 0 0
-0.00136107 0.00309495 0
-0.00532871 0.00666711 0
-0.011155 0.00989614 0
-0.0180922 0.0119617 0
-0.0257048 0.0130418 0
-0.0335576 0.0133146 0
-0.041297 0.0129348 0
-0.0485693 0.0120571 0
-0.0552063 0.0107982 0
-0.0610399 0.00927446 0
-0.0659446 0.00753797 0
-0.069795 0.0056408 0
-0.07251 0.00361899 0
-0.0740086 0.00150858 0
-0.0742668 -0.000639868 0
-0.0732603 -0.00277582 0
-0.0710263 -0.004841 0
-0.0676021 -0.00677715 0
-0.0631047 -0.00852867 0
-0.0576509 -0.0100399 0
-0.0514201 -0.0112681 0
-0.0445914 -0.0121703 0
-0.0373522 -0.0126543 0
-0.0298899 -0.012628 0
-0.0225625 -0.012015 0
-0.0157279 -0.0107388 0
-0.00966526 -0.00867441 0
-0.00465352 -0.00569683 0
-0.00124702 -0.00255553 0
0 0 0
0 0 0
-0.00285743 0.00714276 0
-0.00811214 0.0133366 0
-0.0152486 0.0181954 0
-0.0237512 0.0213329 0
-0.0330557 0.0229113 0
-0.0425978 0.0230924 0
-0.0520105 0.0222131 0
-0.0609265 0.0206103 0
-0.0691215 0.0184296 0
-0.0763711 0.0158165 0
-0.0824933 0.0128461 0
-0.087306 0.00959354 0
-0.090712 0.00612904 0
-0.092614 0.0025227 0
-0.0929781 -0.00114686 0
-0.0917708 -0.00480103 0
-0.0890486 -0.00833489 0
-0.0848684 -0.0116435 0
-0.0793628 -0.0146313 0
-0.0726645 -0.0172025 0
-0.0650082 -0.0192782 0
-0.0566286 -0.0207794 0
-0.0477744 -0.0216328 0
-0.0386943 -0.0217652 0
-0.0296748 -0.0209395 0
-0.0210021 -0.018919 0
-0.0132186 -0.0157054 0
-0.00686662 -0.0113006 0
-0.00233182 -0.00597522 0
0 0 0
0 0 0
-0.0040087 0.011708 0
-0.0106013 0.0207737 0
-0.0192041 0.0273353 0
-0.0292436 0.0315312 0
-0.0400766 0.0335821 0
-0.0510596 0.0337089 0
-0.0618654 0.0323867 0
-0.0721669 0.0300906 0
-0.0816806 0.026978 0
-0.0901231 0.0232063 0
-0.0972796 0.018891 0
-0.102936 0.0141475 0
-0.10697 0.00907825 0
-0.109262 0.00378564 0
-0.109757 -0.00161018 0
-0.108405 -0.00698907 0
-0.105272 -0.0121907 0
-0.100427 -0.0170546 0
-0.0940287 -0.0214403 0
-0.0862345 -0.025207 0
-0.0773214 -0.0282249 0
-0.0675659 -0.0303639 0
-0.0572934 -0.0315881 0
-0.0468294 -0.031862 0
-0.0363836 -0.0308354 0
-0.026166 -0.0281587 0
-0.016834 -0.0238134 0
-0.00904508 -0.0177812 0
-0.00327514 -0.00989804 0
0 0 0
0 0 0
-0.00357216 0.0151826 0
-0.0118352 0.026847 0
-0.0229108 0.0351455 0
-0.0349205 0.0402302 0
-0.0473641 0.0426604 0
-0.0597412 0.0429958 0
-0.0717907 0.0416355 0
-0.0832514 0.0389785 0
-0.0938115 0.0351943 0
-0.103159 0.0304519 0
-0.111106 0.024934 0
-0.117464 0.0188228 0
-0.122064 0.0122386 0
-0.124737 0.00530135 0
-0.125393 -0.00180299 0
-0.123943 -0.00888862 0
-0.120441 -0.0157398 0
-0.114941 -0.0221406 0
-0.107664 -0.0279012 0
-0.0988307 -0.0328315 0
-0.0887396 -0.0367469 0
-0.077688 -0.0394628 0
-0.066069 -0.0409475 0
-0.0542752 -0.041169 0
-0.0426034 -0.0398994 0
-0.0313503 -0.0369106 0
-0.0207078 -0.0316734 0
-0.0108679 -0.0236584 0
-0.00343157 -0.0130419 0
0 0 0
0 0 0
-0.00322203 0.0213215 0
-0.0125961 0.0366184 0
-0.0253647 0.046793 0
-0.0387705 0.0527476 0
-0.0525284 0.055415 0
-0.0663533 0.0557284 0
-0.0798701 0.0540186 0
-0.0927034 0.0506164 0
-0.104533 0.0457583 0
-0.115037 0.0396807 0
-0.124019 0.0325976 0
-0.13128 0.0247232 0
-0.136605 0.0161971 0
-0.13978 0.00715918 0
-0.140684 -0.00213992 0
-0.139201 -0.0114496 0
-0.135371 -0.0204659 0
-0.129235 -0.0288848 0
-0.121053 -0.0364508 0
-0.111084 -0.0429083 0
-0.0996617 -0.0480271 0
-0.0871205 -0.0515774 0
-0.073914 -0.053469 0
-0.0604959 -0.053612 0
-0.0473949 -0.0519647 0
-0.0351399 -0.0484851 0
-0.0234659 -0.0423327 0
-0.0121077 -0.0326667 0
-0.00348064 -0.0187887 0
0 0 0
0 0 0
-0.00463253 0.0338797 0
-0.013666 0.0551496 0
-0.0255621 0.067445 0
-0.0387822 0.0744012 0
-0.0531793 0.0771147 0
-0.0686063 0.0766822 0
-0.0841874 0.0735955 0
-0.0990466 0.0683466 0
-0.112863 0.06135 0
-0.125315 0.0530199 0
-0.136064 0.0435046 0
-0.144771 0.0329523 0
-0.151204 0.021541 0
-0.15513 0.00944849 0
-0.156433 -0.00303562 0
-0.154997 -0.0156219 0
-0.15088 -0.0278527 0
-0.144138 -0.0392704 0
-0.134982 -0.049526 0
-0.123625 -0.0582701 0
-0.110487 -0.0652489 0
-0.0959889 -0.0702086 0
-0.0806416 -0.0729107 0
-0.0649556 -0.0731166 0
-0.0498189 -0.0708644 0
-0.0361198 -0.0661924 0
-0.0237339 -0.0588384 0
-0.0125372 -0.0485403 0
-0.00410189 -0.0305201 0
0 0 0
0 0 0
-0.00533939 0.0434784 0
-0.0133038 0.0696806 0
-0.0238186 0.0842268 0
-0.0368093 0.0927372 0
-0.0518539 0.0961872 0
-0.0685302 0.0955521 0
-0.0856714 0.0915674 0
-0.102111 0.0849686 0
-0.117505 0.0762834 0
-0.131508 0.0660396 0
-0.143668 0.0543466 0
-0.15353 0.0413138 0
-0.160864 0.0271833 0
-0.165436 0.0121968 0
-0.167141 -0.00331121 0
-0.165869 -0.0190062 0
-0.161677 -0.0343062 0
-0.154624 -0.0486293 0
-0.144863 -0.0615201 0
-0.132549 -0.072523 0
-0.118154 -0.0813307 0
-0.102153 -0.0876356 0
-0.0851069 -0.0910615 0
-0.0675813 -0.0912324 0
-0.0506862 -0.0881482 0
-0.035532 -0.0818092 0
-0.0225043 -0.0727162 0
-0.0119883 -0.06137 0
-0.00436117 -0.0397911 0
0 0 0
0 0 0
-0.00287834 0.0407386 0
-0.00976792 0.0674514 0
-0.02045 0.084264 0
-0.0347058 0.0953019 0
-0.0510893 0.10106 0
-0.0681547 0.102033 0
-0.0852508 0.099136 0
-0.101727 0.0932819 0
-0.117161 0.0848727 0
-0.131133 0.0743099 0
-0.143258 0.0618154 0
-0.153149 0.0476114 0
-0.160587 0.032037 0
-0.165349 0.0154315 0
-0.167313 -0.00178781 0
-0.166356 -0.0192033 0
-0.162475 -0.0362326 0
-0.155669 -0.0522934 0
-0.146105 -0.0668267 0
-0.133949 -0.0792734 0
-0.119603 -0.0891911 0
-0.103471 -0.0961372 0
-0.0861652 -0.0997103 0
-0.0683001 -0.099509 0
-0.0508074 -0.0953655 0
-0.034619 -0.087112 0
-0.0207693 -0.0754915 0
-0.0102926 -0.0612467 0
-0.00332434 -0.0381566 0
0 0 0
0 0 0
-0.00105851 0.0342908 0
-0.00761874 0.0601943 0
-0.0189125 0.0792476 0
-0.0341715 0.0929881 0
-0.0512525 0.101442 0
-0.0680123 0.104635 0
-0.0843514 0.103516 0
-0.10017 0.0990313 0
-0.114969 0.0914435 0
-0.128249 0.0810145 0
-0.139738 0.0681389 0
-0.149165 0.0532109 0
-0.156328 0.0366615 0
-0.161021 0.0189218 0
-0.163113 0.000493569 0
-0.162475 -0.0181215 0
-0.159061 -0.0363826 0
-0.152828 -0.0537491 0
-0.14394 -0.0695912 0
-0.132562 -0.0832789 0
-0.118984 -0.0941991 0
-0.103494 -0.101739 0
-0.0867175 -0.105477 0
-0.0692771 -0.104991 0
-0.0518465 -0.0999243 0
-0.0350992 -0.0899211 0
-0.0205349 -0.0756039 0
-0.00965356 -0.0575955 0
-0.0027202 -0.0332696 0
0 0 0
0 0 0
-0.00368903 0.0327654 0
-0.0114164 0.0596415 0
-0.0226622 0.0808689 0
-0.0369064 0.0966885 0
-0.0527104 0.107041 0
-0.0686356 0.111867 0
-0.084399 0.111922 0
-0.0997175 0.107962 0
-0.114064 0.100321 0
-0.126913 0.0893373 0
-0.138014 0.0755449 0
-0.147117 0.0594781 0
-0.15404 0.0416159 0
-0.158603 0.022437 0
-0.160705 0.0024919 0
-0.160244 -0.0176691 0
-0.157226 -0.0375071 0
-0.151656 -0.0564833 0
-0.1436 -0.0739593 0
-0.133126 -0.089297 0
-0.120446 -0.101723 0
-0.105774 -0.110466 0
-0.0896649 -0.11498 0
-0.0726773 -0.114722 0
-0.0554671 -0.109233 0
-0.0386908 -0.0980568 0
-0.023807 -0.0814932 0
-0.0122746 -0.0598416 0
-0.00427755 -0.0327834 0
0 0 0
0 0 0
-0.00688317 0.0355264 0
-0.0160979 0.0652902 0
-0.0274296 0.0891103 0
-0.0406638 0.106805 0
-0.0552825 0.118475 0
-0.0707682 0.124217 0
-0.0864483 0.124634 0
-0.10165 0.120325 0
-0.115855 0.111806 0
-0.128544 0.099595 0
-0.139477 0.0843265 0
-0.148414 0.0666363 0
-0.155204 0.0470306 0
-0.159698 0.0260156 0
-0.16183 0.00415141 0
-0.161539 -0.0180017 0
-0.15888 -0.0398826 0
-0.153911 -0.0609299 0
-0.146585 -0.0804958 0
-0.136853 -0.0979324 0
-0.124854 -0.112342 0
-0.110724 -0.122828 0
-0.0949355 -0.128663 0
-0.0779641 -0.129119 0
-0.060557 -0.123614 0
-0.0434619 -0.111566 0
-0.0279855 -0.0929295 0
-0.0154346 -0.0676617 0
-0.00603178 -0.0364544 0
0 0 0
0 0 0
-0.00675421 0.0419376 0
-0.0166002 0.0766376 0
-0.0289454 0.103954 0
-0.043197 0.123741 0
-0.0587886 0.136361 0
-0.0751537 0.142174 0
-0.0915537 0.141929 0
-0.10725 0.136373 0
-0.121749 0.1262 0
-0.134558 0.112104 0
-0.145517 0.0947769 0
-0.154469 0.0749086 0
-0.161301 0.0530359 0
-0.165903 0.0296959 0
-0.16823 0.00541635 0
-0.168234 -0.0192747 0
-0.165936 -0.0437852 0
-0.161354 -0.0675231 0
-0.154393 -0.0897656 0
-0.144957 -0.10979 0
-0.133071 -0.126634 0
-0.118759 -0.139336 0
-0.102458 -0.146967 0
-0.0846009 -0.148601 0
-0.0660037 -0.143391 0
-0.0474806 -0.130494 0
-0.0304705 -0.109683 0
-0.0164124 -0.0807326 0
-0.00601825 -0.044039 0
0 0 0
0 0 0
-0.00552421 0.0496068 0
-0.0157032 0.0899961 0
-0.029347 0.121152 0
-0.0452658 0.143058 0
-0.0624793 0.156406 0
-0.0800072 0.161884 0
-0.0971681 0.160516 0
-0.113281 0.153322 0
-0.127927 0.141182 0
-0.140692 0.124975 0
-0.151511 0.105428 0
-0.160326 0.0832674 0
-0.167085 0.0590549 0
-0.171739 0.0333509 0
-0.174255 0.00663606 0
-0.1746 -0.020609 0
-0.172727 -0.0477832 0
-0.168587 -0.0742854 0
-0.162045 -0.0993189 0
-0.152966 -0.122087 0
-0.14126 -0.141581 0
-0.126839 -0.156794 0
-0.110069 -0.16656 0
-0.091316 -0.169717 0
-0.0714401 -0.16509 0
-0.0513004 -0.151506 0
-0.0325543 -0.128523 0
-0.0168591 -0.0957 0
-0.0055595 -0.0529038 0
0 0 0
0 0 0
-0.00541522 0.0561413 0
-0.0161865 0.101678 0
-0.030772 0.136456 0
-0.0476301 0.160319 0
-0.0656057 0.174316 0
-0.0835439 0.179495 0
-0.100744 0.177103 0
-0.116507 0.16839 0
-0.130573 0.154435 0
-0.142684 0.136317 0
-0.152837 0.11481 0
-0.161032 0.0906852 0
-0.167312 0.0645105 0
-0.171723 0.0368536 0
-0.174258 0.00815987 0
-0.17491 -0.0211255 0
-0.173591 -0.0504445 0
-0.170214 -0.0792391 0
-0.16456 -0.106706 0
-0.156408 -0.132042 0
-0.145586 -0.154168 0
-0.131921 -0.172008 0
-0.115607 -0.184109 0
-0.0968379 -0.189019 0
-0.0764987 -0.185237 0
-0.0554745 -0.171263 0
-0.0355289 -0.146215 0
-0.0184256 -0.10921 0
-0.00597806 -0.0604153 0
0 0 0
0 0 0
-0.0058441 0.0628902 0
-0.0173431 0.113479 0
-0.0326967 0.151619 0
-0.0501046 0.177162 0
-0.0682889 0.191519 0
-0.0859719 0.196097 0
-0.102492 0.192438 0
-0.117187 0.182081 0
-0.129971 0.166285 0
-0.140759 0.146306 0
-0.149641 0.122978 0
-0.156704 0.0971324 0
-0.162096 0.0693173 0
-0.165964 0.0400792 0
-0.16834 0.00981892 0
-0.169256 -0.0210627 0
-0.168601 -0.0520879 0
-0.166263 -0.0827787 0
-0.161931 -0.112384 0
-0.155294 -0.140151 0
-0.146066 -0.164922 0
-0.133963 -0.185536 0
-0.118965 -0.200271 0
-0.101052 -0.207403 0
-0.0810243 -0.204998 0
-0.0596797 -0.191118 0
-0.0388857 -0.164338 0
-0.0205093 -0.123229 0
-0.00679821 -0.0682852 0
0 0 0
0 0 0
-0.00622771 0.0712026 0
-0.018466 0.127193 0
-0.0345973 0.168393 0
-0.052504 0.195226 0
-0.0706499 0.20944 0
-0.0874992 0.212785 0
-0.102619 0.207269 0
-0.115575 0.194902 0
-0.126405 0.17706 0
-0.135144 0.155115 0
-0.14207 0.129983 0
-0.147461 0.102579 0
-0.15155 0.0733896 0
-0.154569 0.0429027 0
-0.156603 0.0114444 0
-0.157736 -0.0206593 0
-0.157833 -0.0530322 0
-0.156761 -0.0852981 0
-0.15415 -0.116808 0
-0.149634 -0.146913 0
-0.142721 -0.17437 0
-0.132924 -0.197935 0
-0.120034 -0.215703 0
-0.103844 -0.225768 0
-0.0848618 -0.225539 0
-0.0635928 -0.212423 0
-0.0421155 -0.184469 0
-0.0225077 -0.139726 0
-0.00754424 -0.0782256 0
0 0 0
0 0 0
-0.00664298 0.0804756 0
-0.0197579 0.142083 0
-0.0366469 0.186006 0
-0.0546121 0.213427 0
-0.0720245 0.226693 0
-0.087255 0.22815 0
-0.100111 0.220279 0
-0.1104 0.20556 0
-0.11836 0.185515 0
-0.124228 0.161665 0
-0.128484 0.134958 0
-0.131609 0.10634 0
-0.133927 0.0762195 0
-0.135757 0.0450036 0
-0.137237 0.0129142 0
-0.138503 -0.019827 0
-0.139416 -0.0529712 0
-0.139835 -0.0862695 0
-0.139347 -0.119207 0
-0.137543 -0.151269 0
-0.133725 -0.181211 0
-0.127198 -0.207789 0
-0.117469 -0.228911 0
-0.104047 -0.242485 0
-0.0870985 -0.245242 0
-0.0667921 -0.233914 0
-0.0452366 -0.205719 0
-0.0245409 -0.157877 0
-0.00827281 -0.0895744 0
0 0 0
0 0 0
-0.00716685 0.0901064 0
-0.0214213 0.157413 0
-0.0390183 0.203683 0
-0.0562129 0.23068 0
-0.0717485 0.241888 0
-0.0843684 0.240786 0
-0.0939551 0.230152 0
-0.100391 0.212762 0
-0.104324 0.190406 0
-0.106401 0.164876 0
-0.10724 0.137032 0
-0.107456 0.107731 0
-0.107481 0.077299 0
-0.107746 0.0460615 0
-0.108431 0.0141065 0
-0.109714 -0.0184778 0
-0.11148 -0.051599 0
-0.113612 -0.0851648 0
-0.115651 -0.118807 0
-0.117136 -0.152158 0
-0.117251 -0.184141 0
-0.11518 -0.21368 0
-0.109925 -0.2384 0
-0.100492 -0.255925 0
-0.0868221 -0.262491 0
-0.0688558 -0.254332 0
-0.048267 -0.227204 0
-0.0267291 -0.17686 0
-0.00904062 -0.10167 0
0 0 0
0 0 0
-0.00805054 0.100751 0
-0.0231234 0.173299 0
-0.0407021 0.220734 0
-0.0562706 0.246142 0
-0.0688444 0.2542 0
-0.0774392 0.249585 0
-0.0822666 0.235542 0
-0.0835381 0.215317 0
-0.0823272 0.190833 0
-0.0797073 0.164012 0
-0.0764049 0.135578 0
-0.0731469 0.106257 0
-0.0704507 0.0762603 0
-0.0688339 0.0458006 0
-0.0685065 0.0148228 0
-0.0696787 -0.0167277 0
-0.0722773 -0.048925 0
-0.0762289 -0.0818431 0
-0.0810598 -0.115295 0
-0.0862961 -0.149095 0
-0.0910594 -0.182412 0
-0.0944713 -0.214418 0
-0.0950475 -0.242657 0
-0.0913041 -0.264679 0
-0.0826462 -0.276071 0
-0.068479 -0.272422 0
-0.0500721 -0.247859 0
-0.0286954 -0.196507 0
-0.0100907 -0.115006 0
0 0 0
0 0 0
-0.00954527 0.113065 0
-0.0245311 0.18986 0
-0.0406889 0.236467 0
-0.0537496 0.258965 0
-0.0623353 0.262805 0
-0.0650676 0.253437 0
-0.0631617 0.235102 0
-0.057833 0.212037 0
-0.0504017 0.185896 0
-0.0421883 0.158333 0
-0.0340461 0.129969 0
-0.0268287 0.101423 0
-0.0210729 0.0727357 0
-0.0173154 0.0439455 0
-0.015784 0.0148651 0
-0.0167066 -0.014693 0
-0.0200595 -0.0449591 0
-0.025819 -0.0761632 0
-0.0335717 -0.108357 0
-0.0429042 -0.141594 0
-0.0529081 -0.175276 0
-0.062675 -0.208808 0
-0.070482 -0.240167 0
-0.0746059 -0.267335 0
-0.0731847 -0.28477 0
-0.0643566 -0.286932 0
-0.0495173 -0.266623 0
-0.0300628 -0.216646 0
-0.0116661 -0.130079 0
0 0 0
0 0 0
-0.0104864 0.125732 0
-0.0252434 0.205674 0
-0.0392158 0.249477 0
-0.0473482 0.26679 0
-0.048966 0.264556 0
-0.0433948 0.24972 0
-0.0328647 0.227158 0
-0.0196055 0.201749 0
-0.00507005 0.174716 0
0.00928909 0.147285 0
0.0225786 0.11992 0
0.0339052 0.0930836 0
0.0427845 0.066632 0
0.0487324 0.040421 0
0.0515292 0.0141507 0
0.0509553 -0.0124791 0
0.0469824 -0.0398263 0
0.0395819 -0.0682492 0
0.0290408 -0.0980359 0
0.0156461 -0.129475 0
0.000226204 -0.162245 0
-0.0163906 -0.196026 0
-0.0324547 -0.229454 0
-0.046217 -0.261169 0
-0.0546185 -0.285032 0
-0.0546005 -0.294906 0
-0.0463864 -0.281488 0
-0.0301995 -0.235475 0
-0.0125629 -0.145451 0
0 0 0
0 0 0
-0.0097092 0.137437 0
-0.0248589 0.219321 0
-0.0365203 0.258359 0
-0.0357644 0.267256 0
-0.0254817 0.256307 0
-0.00856258 0.235808 0
0.0124004 0.210038 0
0.0348145 0.183281 0
0.0571452 0.156413 0
0.0778581 0.130311 0
0.0962108 0.105147 0
0.111461 0.0810916 0
0.123254 0.0578562 0
0.131233 0.0351519 0
0.135226 0.0125968 0
0.135061 -0.0101911 0
0.130658 -0.0336518 0
0.121938 -0.0582249 0
0.109005 -0.0843727 0
0.0919613 -0.112557 0
0.0713668 -0.142832 0
0.0477824 -0.175247 0
0.022808 -0.209043 0
-0.00195686 -0.243457 0
-0.0231283 -0.273302 0
-0.0373227 -0.29339 0
-0.0404633 -0.290445 0
-0.0284733 -0.251192 0
-0.0115773 -0.15969 0
0 0 0
0 0 0
-0.00901174 0.150846 0
-0.0197762 0.229508 0
-0.0225879 0.257168 0
-0.00774141 0.255007 0
0.0180655 0.235313 0
0.0481352 0.21037 0
0.0800696 0.183183 0
0.111471 0.156756 0
0.140961 0.131598 0
0.167162 0.108218 0
0.189637 0.0864637 0
0.207951 0.0661811 0
0.221937 0.0469925 0
0.231427 0.0285203 0
0.236325 0.0103477 0
0.236532 -0.0079417 0
0.231931 -0.0268135 0
0.222402 -0.0467331 0
0.207845 -0.0682464 0
0.188162 -0.0918994 0
0.163517 -0.118111 0
0.134073 -0.147299 0
0.10102 -0.179246 0
0.0655494 -0.213735 0
0.0305439 -0.247397 0
-0.00111268 -0.276864 0
-0.0209611 -0.286661 0
-0.0205419 -0.261313 0
-0.01013 -0.174525 0
0 0 0
0 0 0
-0.010192 0.168625 0
-0.00639371 0.234942 0
0.0125959 0.23996 0
0.047978 0.224688 0
0.0916237 0.198826 0
0.135404 0.172076 0
0.177579 0.146032 0
0.216406 0.122292 0
0.251092 0.100878 0
0.280843 0.0818117 0
0.305645 0.0646837 0
0.325488 0.049086 0
0.340437 0.0346253 0
0.350556 0.020908 0
0.355843 0.00754751 0
0.356294 -0.00584327 0
0.351768 -0.0196896 0
0.342124 -0.0344166 0
0.327084 -0.0505356 0
0.30637 -0.068558 0
0.279679 -0.0891572 0
0.246709 -0.113007 0
0.207896 -0.140378 0
0.163677 -0.171541 0
0.115657 -0.205137 0
0.0654401 -0.23981 0
0.0229068 -0.263301 0
-0.00206326 -0.263357 0
-0.0096417 -0.191686 0
0 0 0
0 0 0
0.0118952 0.164939 0
0.0465736 0.213332 0
0.0963338 0.19895 0
0.153474 0.175563 0
0.211866 0.148837 0
0.265378 0.124434 0
0.313407 0.102698 0
0.355349 0.0839711 0
0.39125 0.0679287 0
0.421157 0.054247 0
0.445474 0.0423963 0
0.464604 0.0318467 0
0.478815 0.0222642 0
0.488374 0.0133152 0
0.493361 0.00469296 0
0.493859 -0.00390886 0
0.489723 -0.0128238 0
0.48081 -0.0223851 0
0.466727 -0.032983 0
0.447083 -0.0450074 0
0.421188 -0.0592077 0
0.388356 -0.0763334 0
0.348122 -0.0969158 0
0.30002 -0.121486 0
0.243992 -0.150308 0
0.179979 -0.183644 0
0.115137 -0.21436 0
0.0566222 -0.23532 0
0.0147908 -0.18453 0
0 0 0
2.77334e-30 0 0
0.082395 0.113953 0
0.170411 0.142385 0
0.255928 0.126349 0
0.330828 0.106898 0
0.395464 0.0873331 0
0.450188 0.0709566 0
0.496031 0.057294 0
0.534024 0.0458708 0
0.565143 0.036421 0
0.590362 0.0286789 0
0.610364 0.0221909 0
0.625832 0.0165034 0
0.637132 0.0114193 0
0.644632 0.00674144 0
0.648458 0.00228082 0
0.648739 -0.0021515 0
0.64535 -0.00675982 0
0.638163 -0.0117484 0
0.626779 -0.0173312 0
0.610797 -0.0237219 0
0.589377 -0.0314989 0
0.561681 -0.0412402 0
0.526387 -0.0533377 0
0.482173 -0.0681834 0
0.42733 -0.0866941 0
0.360147 -0.109787 0
0.279727 -0.133832 0
0.185174 -0.155201 0
0.0880707 -0.126416 0
2.77334e-30 0 0
0.25 0 0
0.359149 0.0481467 0
0.457444 0.0589812 0
0.540708 0.0505639 0
0.604763 0.0409554 0
0.654236 0.0318693 0
0.693755 0.0250194 0
0.725034 0.0197507 0
0.749789 0.0154081 0
0.769237 0.0119225 0
0.784596 0.00922424 0
0.796483 0.00706091 0
0.805516 0.00517994 0
0.811993 0.00352106 0
0.816213 0.00202402 0
0.818287 0.00061515 0
0.818324 -0.000779212 0
0.816244 -0.00223837 0
0.811966 -0.00384161 0
0.805213 -0.00564762 0
0.795705 -0.00771504 0
0.782798 -0.01033 0
0.765842 -0.0137787 0
0.743432 -0.0181853 0
0.71416 -0.0236743 0
0.675918 -0.0310179 0
0.626601 -0.0409884 0
0.56018 -0.0522134 0
0.470623 -0.0633205 0
0.364905 -0.0530144 0
0.25 0 0
1 0 0
1 0 0
1 0 0
1 0 0
1 0 0
1 0 0
1 0 0
1 0 0
1 0 0
1 0 0
1 0 0
1 0 0
1 0 0
1 0 0
1 0 0
1 0 0
1 0 0
1 0 0
1 0 0
1 0 0
1 0 0
1 0 0
1 0 0
1 0 0
1 0 0
1 0 0
1 0 0
1 0 0
1 0 0
1 0 0
1 0 0
      </DataArray> 
      <DataArray type="Float64" NumberOfComponents="3" Name="Real Velocity" format="ascii">
0 0 0
0 0 0
0 0 0
0 0 0
0 0 0
0 0 0
0 0 0
0 0 0
0 0 0
0 0 0
0 0 0
0 0 0
0 0 0
0 0 0
0 0 0