<?xml version="1.0"?>
<VTKFile type="UnstructuredGrid">
  <UnstructuredGrid>
  <Piece NumberOfPoints="5265"  NumberOfCells="1280">
    <Points>
      <DataArray type="Float64" NumberOfComponents="3" format="ascii">
0 0 0
0.25 0 0
0.5 0 0
0.75 0 0
1 0 0
1.25 0 0
1.5 0 0
1.75 0 0
2 0 0
2.25 0 0
2.5 0 0
2.75 0 0
3 0 0
3.25 0 0
3.5 0 0
3.75 0 0
4 0 0
4.25 0 0
4.5 0 0
4.75 0 0
5 0 0
5.25 0 0
5.5 0 0
5.75 0 0
6 0 0
6.25 0 0
6.5 0 0
6.75 0 0
7 0 0
7.25 0 0
7.5 0 0
7.75 0 0
8 0 0
8.25 0 0
8.5 0 0
8.75 0 0
9 0 0
9.25 0 0
9.5 0 0
9.75 0 0
10 0 0
10.25 0 0
10.5 0 0
10.75 0 0
11 0 0
11.25 0 0
11.5 0 0
11.75 0 0
12 0 0
12.25 0 0
12.5 0 0
12.75 0 0
13 0 0
13.25 0 0
13.5 0 0
13.75 0 0
14 0 0
14.25 0 0
14.5 0 0
14.75 0 0
15 0 0
15.25 0 0
15.5 0 0
15.75 0 0
16 0 0
16.25 0 0
16.5 0 0
16.75 0 0
17 0 0
17.25 0 0
17.5 0 0
17.75 0 0
18 0 0
18.25 0 0
18.5 0 0
18.75 0 0
19 0 0
19.25 0 0
19.5 0 0
19.75 0 0
20 0 0
0 0.25 0
0.25 0.25 0
0.5 0.25 0
0.75 0.25 0
1 0.25 0
1.25 0.25 0
1.5 0.25 0
1.75 0.25 0
2 0.25 0
2.25 0.25 0
2.5 0.25 0
2.75 0.25 0
3 0.25 0
3.25 0.25 0
3.5 0.25 0
3.75 0.25 0
4 0.25 0
4.25 0.25 0
4.5 0.25 0
4.75 0.25 0
5 0.25 0
5.25 0.25 0
5.5 0.25 0
5.75 0.25 0
6 0.25 0
6.25 0.25 0
6.5 0.25 0
6.75 0.25 0
7 0.25 0
7.25 0.25 0
7.5 0.25 0
7.75 0.25 0
8 0.25 0
8.25 0.25 0
8.5 0.25 0
8.75 0.25 0
9 0.25 0
9.25 0.25 0
9.5 0.25 0
9.75 0.25 0
10 0.25 0
10.25 0.25 0
10.5 0.25 0
10.75 0.25 0
11 0.25 0
11.25 0.25 0
11.5 0.25 0
11.75 0.25 0
12 0.25 0
12.25 0.25 0
12.5 0.25 0
12.75 0.25 0
13 0.25 0
13.25 0.25 0
13.5 0.25 0
13.75 0.25 0
14 0.25 0
14.25 0.25 0
14.5 0.25 0
14.75 0.25 0
15 0.25 0
15.25 0.25 0
15.5 0.25 0
15.75 0.25 0
16 0.25 0
16.25 0.25 0
16.5 0.25 0
16.75 0.25 0
17 0.25 0
17.25 0.25 0
17.5 0.25 0
17.75 0.25 0
18 0.25 0
18.25 0.25 0
18.5 0.25 0
18.75 0.25 0
19 0.25 0
19.25 0.25 0
19.5 0.25 0
19.75 0.25 0
20 0.25 0
0 0.5 0
0.25 0.5 0
0.5 0.5 0
0.75 0.5 0
1 0.5 0
1.25 0.5 0
1.5 0.5 0
1.75 0.5 0
2 0.5 0
2.25 0.5 0
2.5 0.5 0
2.75 0.5 0
3 0.5 0
3.25 0.5 0
3.5 0.5 0
3.75 0.5 0
4 0.5 0
4.25 0.5 0
4.5 0.5 0
4.75 0.5 0
5 0.5 0
5.25 0.5 0
5.5 0.5 0
5.75 0.5 0
6 0.5 0
6.25 0.5 0
6.5 0.5 0
6.75 0.5 0
7 0.5 0
7.25 0.5 0
7.5 0.5 0
7.75 0.5 0
8 0.5 0
8.25 0.5 0
8.5 0.5 0
8.75 0.5 0
9 0.5 0
9.25 0.5 0
9.5 0.5 0
9.75 0.5 0
10 0.5 0
10.25 0.5 0
10.5 0.5 0
10.75 0.5 0
11 0.5 0
11.25 0.5 0
11.5 0.5 0
11.75 0.5 0
12 0.5 0
12.25 0.5 0
12.5 0.5 0
12.75 0.5 0
13 0.5 0
13.25 0.5 0
13.5 0.5 0
13.75 0.5 0
14 0.5 0
14.25 0.5 0
14.5 0.5 0
14.75 0.5 0
15 0.5 0
15.25 0.5 0
15.5 0.5 0
15.75 0.5 0
16 0.5 0
16.25 0.5 0
16.5 0.5 0
16.75 0.5 0
17 0.5 0
17.25 0.5 0
17.5 0.5 0
17.75 0.5 0
18 0.5 0
18.25 0.5 0
18.5 0.5 0
18.75 0.5 0
19 0.5 0
19.25 0.5 0
19.5 0.5 0
19.75 0.5 0
20 0.5 0
0 0.75 0
0.25 0.75 0
0.5 0.75 0
0.75 0.75 0
1 0.75 0
1.25 0.75 0
1.5 0.75 0
1.75 0.75 0
2 0.75 0
2.25 0.75 0
2.5 0.75 0
2.75 0.75 0
3 0.75 0
3.25 0.75 0
3.5 0.75 0
3.75 0.75 0
4 0.75 0
4.25 0.75 0
4.5 0.75 0
4.75 0.75 0
5 0.75 0
5.25 0.75 0
5.5 0.75 0
5.75 0.75 0
6 0.75 0
6.25 0.75 0
6.5 0.75 0
6.75 0.75 0
7 0.75 0
7.25 0.75 0
7.5 0.75 0
7.75 0.75 0
8 0.75 0
8.25 0.75 0
8.5 0.75 0
8.75 0.75 0
9 0.75 0
9.25 0.75 0
9.5 0.75 0
9.75 0.75 0
10 0.75 0
10.25 0.75 0
10.5 0.75 0
10.75 0.75 0
11 0.75 0
11.25 0.75 0
11.5 0.75 0
11.75 0.75 0
12 0.75 0
12.25 0.75 0
12.5 0.75 0
12.75 0.75 0
13 0.75 0
13.25 0.75 0
13.5 0.75 0
13.75 0.75 0
14 0.75 0
14.25 0.75 0
14.5 0.75 0
14.75 0.75 0
15 0.75 0
15.25 0.75 0
15.5 0.75 0
15.75 0.75 0
16 0.75 0
16.25 0.75 0
16.5 0.75 0
16.75 0.75 0
17 0.75 0
17.25 0.75 0
17.5 0.75 0
17.75 0.75 0
18 0.75 0
18.25 0.75 0
18.5 0.75 0
18.75 0.75 0
19 0.75 0
19.25 0.75 0
19.5 0.75 0
19.75 0.75 0
20 0.75 0
0 1 0
0.25 1 0
0.5 1 0
0.75 1 0
1 1 0
1.25 1 0
1.5 1 0
1.75 1 0
2 1 0
2.25 1 0
2.5 1 0
2.75 1 0
3 1 0
3.25 1 0
3.5 1 0
3.75 1 0
4 1 0
4.25 1 0
4.5 1 0
4.75 1 0
5 1 0
5.25 1 0
5.5 1 0
5.75 1 0
6 1 0
6.25 1 0
6.5 1 0
6.75 1 0
7 1 0
7.25 1 0
7.5 1 0
7.75 1 0
8 1 0
8.25 1 0
8.5 1 0
8.75 1 0
9 1 0
9.25 1 0
9.5 1 0
9.75 1 0
10 1 0
10.25 1 0
10.5 1 0
10.75 1 0
11 1 0
11.25 1 0
11.5 1 0
11.75 1 0
12 1 0
12.25 1 0
12.5 1 0
12.75 1 0
13 1 0
13.25 1 0
13.5 1 0
13.75 1 0
14 1 0
14.25 1 0
14.5 1 0
14.75 1 0
15 1 0
15.25 1 0
15.5 1 0
15.75 1 0
16 1 0
16.25 1 0
16.5 1 0
16.75 1 0
17 1 0
17.25 1 0
17.5 1 0
17.75 1 0
18 1 0
18.25 1 0
18.5 1 0
18.75 1 0
19 1 0
19.25 1 0
19.5 1 0
19.75 1 0
20 1 0
0 1.25 0
0.25 1.25 0
0.5 1.25 0
0.75 1.25 0
1 1.25 0
1.25 1.25 0
1.5 1.25 0
1.75 1.25 0
2 1.25 0
2.25 1.25 0
2.5 1.25 0
2.75 1.25 0
3 1.25 0
3.25 1.25 0
3.5 1.25 0
3.75 1.25 0
4 1.25 0
4.25 1.25 0
4.5 1.25 0
4.75 1.25 0
5 1.25 0
5.25 1.25 0
5.5 1.25 0
5.75 1.25 0
6 1.25 0
6.25 1.25 0
6.5 1.25 0
6.75 1.25 0
7 1.25 0
7.25 1.25 0
7.5 1.25 0
7.75 1.25 0
8 1.25 0
8.25 1.25 0
8.5 1.25 0
8.75 1.25 0
9 1.25 0
9.25 1.25 0
9.5 1.25 0
9.75 1.25 0
10 1.25 0
10.25 1.25 0
10.5 1.25 0
10.75 1.25 0
11 1.25 0
11.25 1.25 0
11.5 1.25 0
11.75 1.25 0
12 1.25 0
12.25 1.25 0
12.5 1.25 0
12.75 1.25 0
13 1.25 0
13.25 1.25 0
13.5 1.25 0
13.75 1.25 0
14 1.25 0
14.25 1.25 0
14.5 1.25 0
14.75 1.25 0
15 1.25 0
15.25 1.25 0
15.5 1.25 0
15.75 1.25 0
16 1.25 0
16.25 1.25 0
16.5 1.25 0
16.75 1.25 0
17 1.25 0
17.25 1.25 0
17.5 1.25 0
17.75 1.25 0
18 1.25 0
18.25 1.25 0
18.5 1.25 0
18.75 1.25 0
19 1.25 0
19.25 1.25 0
19.5 1.25 0
19.75 1.25 0
20 1.25 0
0 1.5 0
0.25 1.5 0
0.5 1.5 0
0.75 1.5 0
1 1.5 0
1.25 1.5 0
1.5 1.5 0
1.75 1.5 0
2 1.5 0
2.25 1.5 0
2.5 1.5 0
2.75 1.5 0
3 1.5 0
3.25 1.5 0
3.5 1.5 0
3.75 1.5 0
4 1.5 0
4.25 1.5 0
4.5 1.5 0
4.75 1.5 0
5 1.5 0
5.25 1.5 0
5.5 1.5 0
5.75 1.5 0
6 1.5 0
6.25 1.5 0
6.5 1.5 0
6.75 1.5 0
7 1.5 0
7.25 1.5 0
7.5 1.5 0
7.75 1.5 0
8 1.5 0
8.25 1.5 0
8.5 1.5 0
8.75 1.5 0
9 1.5 0
9.25 1.5 0
9.5 1.5 0
9.75 1.5 0
10 1.5 0
10.25 1.5 0
10.5 1.5 0
10.75 1.5 0
11 1.5 0
11.25 1.5 0
11.5 1.5 0
11.75 1.5 0
12 1.5 0
12.25 1.5 0
12.5 1.5 0
12.75 1.5 0
13 1.5 0
13.25 1.5 0
13.5 1.5 0
13.75 1.5 0
14 1.5 0
14.25 1.5 0
14.5 1.5 0
14.75 1.5 0
15 1.5 0
15.25 1.5 0
15.5 1.5 0
15.75 1.5 0
16 1.5 0
16.25 1.5 0
16.5 1.5 0
16.75 1.5 0
17 1.5 0
17.25 1.5 0
17.5 1.5 0
17.75 1.5 0
18 1.5 0
18.25 1.5 0
18.5 1.5 0
18.75 1.5 0
19 1.5 0
19.25 1.5 0
19.5 1.5 0
19.75 1.5 0
20 1.5 0
0 1.75 0
0.25 1.75 0
0.5 1.75 0
0.75 1.75 0
1 1.75 0
1.25 1.75 0
1.5 1.75 0
1.75 1.75 0
2 1.75 0
2.25 1.75 0
2.5 1.75 0
2.75 1.75 0
3 1.75 0
3.25 1.75 0
3.5 1.75 0
3.75 1.75 0
4 1.75 0
4.25 1.75 0
4.5 1.75 0
4.75 1.75 0
5 1.75 0
5.25 1.75 0
5.5 1.75 0
5.75 1.75 0
6 1.75 0
6.25 1.75 0
6.5 1.75 0
6.75 1.75 0
7 1.75 0
7.25 1.75 0
7.5 1.75 0
7.75 1.75 0
8 1.75 0
8.25 1.75 0
8.5 1.75 0
8.75 1.75 0
9 1.75 0
9.25 1.75 0
9.5 1.75 0
9.75 1.75 0
10 1.75 0
10.25 1.75 0
10.5 1.75 0
10.75 1.75 0
11 1.75 0
11.25 1.75 0
11.5 1.75 0
11.75 1.75 0
12 1.75 0
12.25 1.75 0
12.5 1.75 0
12.75 1.75 0
13 1.75 0
13.25 1.75 0
13.5 1.75 0
13.75 1.75 0
14 1.75 0
14.25 1.75 0
14.5 1.75 0
14.75 1.75 0
15 1.75 0
15.25 1.75 0
15.5 1.75 0
15.75 1.75 0
16 1.75 0
16.25 1.75 0
16.5 1.75 0
16.75 1.75 0
17 1.75 0
17.25 1.75 0
17.5 1.75 0
17.75 1.75 0
18 1.75 0
18.25 1.75 0
18.5 1.75 0
18.75 1.75 0
19 1.75 0
19.25 1.75 0
19.5 1.75 0
19.75 1.75 0
20 1.75 0
0 2 0
0.25 2 0
0.5 2 0
0.75 2 0
1 2 0
1.25 2 0
1.5 2 0
1.75 2 0
2 2 0
2.25 2 0
2.5 2 0
2.75 2 0
3 2 0
3.25 2 0
3.5 2 0
3.75 2 0
4 2 0
4.25 2 0
4.5 2 0
4.75 2 0
5 2 0
5.25 2 0
5.5 2 0
5.75 2 0
6 2 0
6.25 2 0
6.5 2 0
6.75 2 0
7 2 0
7.25 2 0
7.5 2 0
7.75 2 0
8 2 0
8.25 2 0
8.5 2 0
8.75 2 0
9 2 0
9.25 2 0
9.5 2 0
9.75 2 0
10 2 0
10.25 2 0
10.5 2 0
10.75 2 0
11 2 0
11.25 2 0
11.5 2 0
11.75 2 0
12 2 0
12.25 2 0
12.5 2 0
12.75 2 0
13 2 0
13.25 2 0
13.5 2 0
13.75 2 0
14 2 0
14.25 2 0
14.5 2 0
14.75 2 0
15 2 0
15.25 2 0
15.5 2 0
15.75 2 0
16 2 0
16.25 2 0
16.5 2 0
16.75 2 0
17 2 0
17.25 2 0
17.5 2 0
17.75 2 0
18 2 0
18.25 2 0
18.5 2 0
18.75 2 0
19 2 0
19.25 2 0
19.5 2 0
19.75 2 0
20 2 0
0 2.25 0
0.25 2.25 0
0.5 2.25 0
0.75 2.25 0
1 2.25 0
1.25 2.25 0
1.5 2.25 0
1.75 2.25 0
2 2.25 0
2.25 2.25 0
2.5 2.25 0
2.75 2.25 0
3 2.25 0
3.25 2.25 0
3.5 2.25 0
3.75 2.25 0
4 2.25 0
4.25 2.25 0
4.5 2.25 0
4.75 2.25 0
5 2.25 0
5.25 2.25 0
5.5 2.25 0
5.75 2.25 0
6 2.25 0
6.25 2.25 0
6.5 2.25 0
6.75 2.25 0
7 2.25 0
7.25 2.25 0
7.5 2.25 0
7.75 2.25 0
8 2.25 0
8.25 2.25 0
8.5 2.25 0
8.75 2.25 0
9 2.25 0
9.25 2.25 0
9.5 2.25 0
9.75 2.25 0
10 2.25 0
10.25 2.25 0
10.5 2.25 0
10.75 2.25 0
11 2.25 0
11.25 2.25 0
11.5 2.25 0
11.75 2.25 0
12 2.25 0
12.25 2.25 0
12.5 2.25 0
12.75 2.25 0
13 2.25 0
13.25 2.25 0
13.5 2.25 0
13.75 2.25 0
14 2.25 0
14.25 2.25 0
14.5 2.25 0
14.75 2.25 0
15 2.25 0
15.25 2.25 0
15.5 2.25 0
15.75 2.25 0
16 2.25 0
16.25 2.25 0
16.5 2.25 0
16.75 2.25 0
17 2.25 0
17.25 2.25 0
17.5 2.25 0
17.75 2.25 0
18 2.25 0
18.25 2.25 0
18.5 2.25 0
18.75 2.25 0
19 2.25 0
19.25 2.25 0
19.5 2.25 0
19.75 2.25 0
20 2.25 0
0 2.5 0
0.25 2.5 0
0.5 2.5 0
0.75 2.5 0
1 2.5 0
1.25 2.5 0
1.5 2.5 0
1.75 2.5 0
2 2.5 0
2.25 2.5 0
2.5 2.5 0
2.75 2.5 0
3 2.5 0
3.25 2.5 0
3.5 2.5 0
3.75 2.5 0
4 2.5 0
4.25 2.5 0
4.5 2.5 0
4.75 2.5 0
5 2.5 0
5.25 2.5 0
5.5 2.5 0
5.75 2.5 0
6 2.5 0
6.25 2.5 0
6.5 2.5 0
6.75 2.5 0
7 2.5 0
7.25 2.5 0
7.5 2.5 0
7.75 2.5 0
8 2.5 0
8.25 2.5 0
8.5 2.5 0
8.75 2.5 0
9 2.5 0
9.25 2.5 0
9.5 2.5 0
9.75 2.5 0
10 2.5 0
10.25 2.5 0
10.5 2.5 0
10.75 2.5 0
11 2.5 0
11.25 2.5 0
11.5 2.5 0
11.75 2.5 0
12 2.5 0
12.25 2.5 0
12.5 2.5 0
12.75 2.5 0
13 2.5 0
13.25 2.5 0
13.5 2.5 0
13.75 2.5 0
14 2.5 0
14.25 2.5 0
14.5 2.5 0
14.75 2.5 0
15 2.5 0
15.25 2.5 0
15.5 2.5 0
15.75 2.5 0
16 2.5 0
16.25 2.5 0
16.5 2.5 0
16.75 2.5 0
17 2.5 0
17.25 2.5 0
17.5 2.5 0
17.75 2.5 0
18 2.5 0
18.25 2.5 0
18.5 2.5 0
18.75 2.5 0
19 2.5 0
19.25 2.5 0
19.5 2.5 0
19.75 2.5 0
20 2.5 0
0 2.75 0
0.25 2.75 0
0.5 2.75 0
0.75 2.75 0
1 2.75 0
1.25 2.75 0
1.5 2.75 0
1.75 2.75 0
2 2.75 0
2.25 2.75 0
2.5 2.75 0
2.75 2.75 0
3 2.75 0
3.25 2.75 0
3.5 2.75 0
3.75 2.75 0
4 2.75 0
4.25 2.75 0
4.5 2.75 0
4.75 2.75 0
5 2.75 0
5.25 2.75 0
5.5 2.75 0
5.75 2.75 0
6 2.75 0
6.25 2.75 0
6.5 2.75 0
6.75 2.75 0
7 2.75 0
7.25 2.75 0
7.5 2.75 0
7.75 2.75 0
8 2.75 0
8.25 2.75 0
8.5 2.75 0
8.75 2.75 0
9 2.75 0
9.25 2.75 0
9.5 2.75 0
9.75 2.75 0
10 2.75 0
10.25 2.75 0
10.5 2.75 0
10.75 2.75 0
11 2.75 0
11.25 2.75 0
11.5 2.75 0
[...]
    <PointData>
      <DataArray type="Float64" NumberOfComponents="3" Name="Velocity" format="ascii">
1 0 0
1.00008 0 0
1.00028 0 0
1.00055 0 0
1.00081 0 0
1.00108 0 0
1.00134 0 0
1.00162 0 0
1.0019 0 0
1.0022 0 0
1.0025 0 0
1.00281 0 0
1.00313 0 0
1.00347 0 0
1.00382 0 0
1.00417 0 0
1.00454 0 0
1.00492 0 0
1.0053 0 0
1.00569 0 0
1.00608 0 0
1.00647 0 0
1.00686 0 0
1.00724 0 0
1.00761 0 0
1.00796 0 0
1.0083 0 0
1.00861 0 0
1.00889 0 0
1.00914 0 0
1.00934 0 0
1.00951 0 0
1.00964 0 0
1.00972 0 0
1.00975 0 0
1.00974 0 0
1.00967 0 0
1.00956 0 0
1.0094 0 0
1.00921 0 0
1.00898 0 0
1.00872 0 0
1.00843 0 0
1.00811 0 0
1.00777 0 0
1.00742 0 0
1.00706 0 0
1.0067 0 0
1.00633 0 0
1.00596 0 0
1.0056 0 0
1.00525 0 0
1.0049 0 0
1.00457 0 0
1.00425 0 0
1.00395 0 0
1.00366 0 0
1.00339 0 0
1.00313 0 0
1.00289 0 0
1.00267 0 0
1.00246 0 0
1.00226 0 0
1.00209 0 0
1.00192 0 0
1.00177 0 0
1.00163 0 0
1.00151 0 0
1.00139 0 0
1.00129 0 0
1.0012 0 0
1.00111 0 0
1.00104 0 0
1.00098 0 0
1.00092 0 0
1.00087 0 0
1.00084 0 0
1.0008 0 0
1.00078 0 0
1.00076 0 0
1.00075 0 0
1 0 0
1.00008 -0.000157515 0
1.00028 -0.000239356 0
1.00054 -0.000268486 0
1.00081 -0.000267866 0
1.00107 -0.00026026 0
1.00134 -0.000268435 0
1.00161 -0.000281786 0
1.0019 -0.000289708 0
1.00219 -0.000296637 0
1.00249 -0.000307011 0
1.0028 -0.000318777 0
1.00313 -0.000329883 0
1.00346 -0.000340749 0
1.00381 -0.000351794 0
1.00417 -0.000362416 0
1.00453 -0.000372009 0
1.00491 -0.000380206 0
1.0053 -0.000386642 0
1.00569 -0.000390937 0
1.00608 -0.000392715 0
1.00647 -0.000391232 0
1.00686 -0.000385743 0
1.00724 -0.000376374 0
1.00762 -0.000363248 0
1.00797 -0.000346047 0
1.00831 -0.000324452 0
1.00862 -0.00029782 0
1.00891 -0.00026551 0
1.00916 -0.000228824 0
1.00937 -0.000189068 0
1.00954 -0.000146912 0
1.00966 -0.00010303 0
1.00974 -5.70782e-05 0
1.00977 -8.71271e-06 0
1.00976 4.03086e-05 0
1.0097 8.82278e-05 0
1.00959 0.000133729 0
1.00943 0.000175497 0
1.00923 0.000213755 0
1.009 0.000248726 0
1.00873 0.000279828 0
1.00844 0.00030648 0
1.00812 0.000328308 0
1.00778 0.000344935 0
1.00743 0.000356848 0
1.00706 0.000364531 0
1.00669 0.000368233 0
1.00632 0.000368202 0
1.00596 0.000364774 0
1.00559 0.000358288 0
1.00524 0.00034923 0
1.0049 0.00033809 0
1.00456 0.000325266 0
1.00424 0.000311159 0
1.00394 0.000296112 0
1.00365 0.000280468 0
1.00338 0.000264463 0
1.00312 0.000248334 0
1.00288 0.000232267 0
1.00266 0.000216447 0
1.00245 0.000200986 0
1.00226 0.000185994 0
1.00208 0.00017153 0
1.00191 0.000157652 0
1.00176 0.000144381 0
1.00163 0.000131739 0
1.0015 0.00011972 0
1.00139 0.000108316 0
1.00128 9.74989e-05 0
1.00119 8.72414e-05 0
1.00111 7.75089e-05 0
1.00104 6.8267e-05 0
1.00097 5.94656e-05 0
1.00092 5.10545e-05 0
1.00087 4.29944e-05 0
1.00083 3.52464e-05 0
1.0008 2.7742e-05 0
1.00078 2.04127e-05 0
1.00076 1.32551e-05 0
1.00075 6.26593e-06 0
1 0 0
1.00008 -0.000314158 0
1.00028 -0.000477417 0
1.00054 -0.000535559 0
1.0008 -0.000534364 0
1.00106 -0.000519266 0
1.00133 -0.000535697 0
1.0016 -0.000562497 0
1.00188 -0.000578507 0
1.00218 -0.000592529 0
1.00248 -0.000613367 0
1.00279 -0.000637075 0
1.00311 -0.000659708 0
1.00345 -0.000681864 0
1.00379 -0.000704141 0
1.00415 -0.000725606 0
1.00452 -0.000745327 0
1.0049 -0.000762331 0
1.00529 -0.000775644 0
1.00568 -0.000784463 0
1.00608 -0.000787989 0
1.00648 -0.000785499 0
1.00687 -0.000776271 0
1.00726 -0.000759035 0
1.00764 -0.000732521 0
1.00801 -0.000696686 0
1.00835 -0.00065149 0
1.00867 -0.000597449 0
1.00896 -0.000535084 0
1.00921 -0.0004641 0
1.00943 -0.0003842 0
1.00961 -0.000297301 0
1.00973 -0.000205319 0
1.00981 -0.000110479 0
1.00984 -1.50058e-05 0
1.00983 8.02294e-05 0
1.00976 0.000174355 0
1.00965 0.00026559 0
1.00949 0.000352151 0
1.00929 0.000432008 0
1.00905 0.00050313 0
1.00878 0.000565191 0
1.00847 0.000617865 0
1.00815 0.000661139 0
1.0078 0.000694998 0
1.00744 0.000719462 0
1.00707 0.000734551 0
1.0067 0.000741138 0
1.00632 0.000740096 0
1.00595 0.000732367 0
1.00558 0.00071889 0
1.00522 0.000700438 0
1.00488 0.000677784 0
1.00454 0.000651771 0
1.00422 0.00062324 0
1.00392 0.000592856 0
1.00363 0.000561283 0
1.00336 0.000529021 0
1.0031 0.000496568 0
1.00286 0.000464283 0
1.00264 0.000432523 0
1.00243 0.000401507 0
1.00223 0.000371451 0
1.00206 0.000342472 0
1.00189 0.000314687 0
1.00174 0.000288136 0
1.00161 0.000262857 0
1.00148 0.000238831 0
1.00137 0.000216043 0
1.00127 0.000194437 0
1.00118 0.000173959 0
1.0011 0.000154536 0
1.00102 0.000136095 0
1.00096 0.000118536 0
1.00091 0.000101762 0
1.00086 8.56913e-05 0
1.00082 7.0245e-05 0
1.00079 5.5286e-05 0
1.00077 4.06777e-05 0
1.00075 2.64123e-05 0
1.00074 1.24819e-05 0
1 0 0
1.00008 -0.000469037 0
1.00028 -0.000712833 0
1.00053 -0.00079974 0
1.00079 -0.000798111 0
1.00105 -0.000775786 0
1.00131 -0.000800605 0
1.00158 -0.000840989 0
1.00186 -0.000865363 0
1.00215 -0.000886837 0
1.00245 -0.000918525 0
1.00276 -0.000954603 0
1.00308 -0.00098925 0
1.00342 -0.00102329 0
1.00377 -0.00105755 0
1.00413 -0.00109065 0
1.0045 -0.00112119 0
1.00488 -0.00114777 0
1.00527 -0.00116898 0
1.00567 -0.00118345 0
1.00608 -0.00118982 0
1.00648 -0.00118714 0
1.00689 -0.00117446 0
1.00729 -0.00114964 0
1.00768 -0.00111054 0
1.00806 -0.00105689 0
1.00841 -0.000988395 0
1.00874 -0.000906588 0
1.00904 -0.000812986 0
1.0093 -0.000706454 0
1.00953 -0.000585858 0
1.00972 -0.000453684 0
1.00985 -0.000312419 0
1.00994 -0.000166675 0
1.00997 -2.10626e-05 0
1.00995 0.000123407 0
1.00988 0.000265724 0
1.00976 0.000403862 0
1.00959 0.000535795 0
1.00938 0.000657733 0
1.00913 0.000765888 0
1.00885 0.000859784 0
1.00854 0.000938944 0
1.0082 0.00100367 0
1.00784 0.00105426 0
1.00747 0.00109061 0
1.00709 0.00111258 0
1.0067 0.00112154 0
1.00632 0.00111885 0
1.00594 0.00110603 0
1.00556 0.0010846 0
1.0052 0.00105577 0
1.00485 0.00102075 0
1.00451 0.000980784 0
1.00419 0.000937135 0
1.00388 0.000890789 0
1.00359 0.000842736 0
1.00331 0.000793744 0
1.00306 0.000744582 0
1.00282 0.000695769 0
1.0026 0.000647822 0
1.00239 0.000601059 0
1.0022 0.000555799 0
1.00202 0.000512211 0
1.00186 0.000470468 0
1.00171 0.000430617 0
1.00158 0.000392705 0
1.00145 0.000356702 0
1.00134 0.000322577 0
1.00124 0.000290244 0
1.00115 0.000259618 0
1.00107 0.000230586 0
1.001 0.000203033 0
1.00094 0.00017681 0
1.00089 0.000151769 0
1.00084 0.000127788 0
1.0008 0.000104743 0
1.00077 8.24314e-05 0
1.00075 6.06468e-05 0
1.00073 3.93761e-05 0
1.00072 1.86056e-05 0
1 0 0
1.00008 -0.000621258 0
1.00027 -0.000944253 0
1.00052 -0.00105955 0
1.00078 -0.00105772 0
1.00103 -0.00102859 0
1.00129 -0.00106198 0
1.00155 -0.00111612 0
1.00183 -0.00114924 0
1.00211 -0.00117872 0
1.00241 -0.00122194 0
1.00272 -0.00127107 0
1.00304 -0.00131828 0
1.00338 -0.00136498 0
1.00373 -0.00141255 0
1.00409 -0.00145863 0
1.00446 -0.00150084 0
1.00485 -0.00153793 0
1.00525 -0.00156863 0
1.00566 -0.00159078 0
1.00607 -0.00160221 0
1.00649 -0.00160049 0
1.00691 -0.00158318 0
1.00733 -0.00154984 0
1.00773 -0.00150003 0
1.00812 -0.00143161 0
1.00849 -0.00134245 0
1.00885 -0.00123294 0
1.00916 -0.00110348 0
1.00944 -0.000956512 0
1.00968 -0.000794501 0
1.00987 -0.00061858 0
1.01001 -0.000429884 0
1.01011 -0.000232139 0
1.01015 -2.90663e-05 0
1.01013 0.000173487 0
1.01005 0.000369675 0
1.00992 0.000556824 0
1.00974 0.000732258 0
1.00951 0.0008939 0
1.00925 0.00103967 0
1.00895 0.0011673 0
1.00862 0.00127451 0
1.00826 0.00136108 0
1.00788 0.00142681 0
1.0075 0.00147305 0
1.0071 0.00150114 0
1.0067 0.00151227 0
1.00631 0.00150762 0
1.00592 0.001489 0
1.00553 0.00145821 0
1.00516 0.00141738 0
1.0048 0.00136864 0
1.00446 0.00131358 0
1.00413 0.00125374 0
1.00382 0.00119047 0
1.00353 0.00112512 0
1.00326 0.0010587 0
1.003 0.00099226 0
1.00276 0.000926447 0
1.00254 0.000861933 0
1.00234 0.000799134 0
1.00215 0.000738463 0
1.00197 0.000680133 0
1.00181 0.000624357 0
1.00167 0.000571178 0
1.00153 0.000520639 0
1.00141 0.000472698 0
1.0013 0.000427312 0
1.00121 0.000384351 0
1.00112 0.000343685 0
1.00104 0.000305162 0
1.00097 0.000268632 0
1.00091 0.000233888 0
1.00086 0.000200725 0
1.00081 0.00016898 0
1.00078 0.000138489 0
1.00075 0.000108978 0
1.00072 8.01719e-05 0
1.00071 5.2051e-05 0
1.0007 2.45951e-05 0
1 0 0
1.00008 -0.000769855 0
1.00026 -0.00117027 0
1.00051 -0.00131347 0
1.00075 -0.00131167 0
1.001 -0.00127622 0
1.00125 -0.00131847 0
1.00151 -0.00138665 0
1.00178 -0.001429 0
1.00207 -0.00146713 0
1.00236 -0.00152261 0
1.00267 -0.00158568 0
1.00299 -0.00164655 0
1.00332 -0.00170709 0
1.00367 -0.00176916 0
1.00404 -0.0018297 0
1.00442 -0.0018856 0
1.00481 -0.00193527 0
1.00522 -0.0019771 0
1.00564 -0.00200848 0
1.00607 -0.00202683 0
1.0065 -0.00202825 0
1.00694 -0.00200888 0
1.00737 -0.00196908 0
1.00779 -0.00190927 0
1.00821 -0.00182623 0
1.00861 -0.00171678 0
1.00898 -0.00157969 0
1.00932 -0.00141374 0
1.00963 -0.00122421 0
1.00988 -0.0010164 0
1.01008 -0.000792064 0
1.01023 -0.000552992 0
1.01033 -0.000301274 0
1.01038 -3.90025e-05 0
1.01036 0.000224258 0
1.01028 0.000478942 0
1.01013 0.000720345 0
1.00994 0.000943762 0
1.00969 0.0011484 0
1.0094 0.00133345 0
1.00908 0.00149552 0
1.00872 0.00163119 0
1.00834 0.00173968 0
1.00794 0.00182021 0
1.00753 0.00187536 0
1.00712 0.00190771 0
1.0067 0.00191874 0
1.00629 0.00190994 0
1.00588 0.00188348 0
1.00549 0.00184156 0
1.00511 0.00178708 0
1.00474 0.00172293 0
1.00439 0.00165111 0
1.00406 0.00157361 0
1.00375 0.00149214 0
1.00346 0.00140843 0
1.00318 0.00132371 0
1.00293 0.00123922 0
1.00269 0.00115579 0
1.00247 0.00107424 0
1.00227 0.000995053 0
1.00208 0.00091873 0
1.00191 0.000845504 0
1.00175 0.000775607 0
1.00161 0.000709075 0
1.00148 0.000645945 0
1.00136 0.000586145 0
1.00125 0.000529606 0
1.00116 0.000476149 0
1.00107 0.000425598 0
1.001 0.000377758 0
1.00093 0.000332433 0
1.00087 0.000289359 0
1.00082 0.000248272 0
1.00078 0.000208965 0
1.00074 0.00017123 0
1.00071 0.000134725 0
1.00069 9.91035e-05 0
1.00068 6.43389e-05 0
1.00067 3.04028e-05 0
1 0 0
1.00007 -0.000913864 0
1.00025 -0.00138948 0
1.00049 -0.00155997 0
1.00073 -0.00155844 0
1.00097 -0.00151724 0
1.00121 -0.00156874 0
1.00147 -0.00165135 0
1.00173 -0.00170352 0
1.00201 -0.00175099 0
1.0023 -0.00181954 0
1.0026 -0.00189764 0
1.00292 -0.0019738 0
1.00325 -0.00204979 0
1.0036 -0.00212742 0
1.00397 -0.00220398 0
1.00436 -0.00227678 0
1.00476 -0.00234227 0
1.00518 -0.0023969 0
1.00561 -0.00243861 0
1.00605 -0.00246534 0
1.0065 -0.00247312 0
1.00696 -0.00245799 0
1.00742 -0.00241683 0
1.00788 -0.00234654 0
1.00833 -0.00224611 0
1.00875 -0.0021145 0
1.00914 -0.00195002 0
1.00951 -0.00175096 0
1.00984 -0.00151949 0
1.01012 -0.00125781 0
1.01035 -0.000974214 0
1.01052 -0.000677022 0
1.01062 -0.000368486 0
1.01065 -5.08566e-05 0
1.01062 0.00026951 0
1.01054 0.000586258 0
1.01039 0.000890295 0
1.01019 0.00117253 0
1.00992 0.00142911 0
1.00961 0.00165618 0
1.00925 0.0018522 0
1.00887 0.00201562 0
1.00846 0.00214578 0
1.00803 0.00224202 0
1.00759 0.00230609 0
1.00714 0.00233974 0
1.0067 0.00234636 0
1.00627 0.0023293 0
1.00584 0.00229166 0
1.00543 0.00223652 0
1.00504 0.0021667 0
1.00466 0.00208505 0
1.00431 0.00199433 0
1.00397 0.00189731 0
1.00366 0.00179607 0
1.00336 0.00169268 0
1.00309 0.00158856 0
1.00283 0.00148509 0
1.0026 0.00138328 0
1.00238 0.00128412 0
1.00218 0.00118814 0
1.002 0.00109589 0
1.00183 0.00100759 0
1.00168 0.000923471 0
1.00154 0.000843566 0
1.00141 0.000767908 0
1.0013 0.000696368 0
1.00119 0.000628813 0
1.0011 0.000565029 0
1.00102 0.000504798 0
1.00095 0.000447867 0
1.00088 0.000393979 0
1.00083 0.000342814 0
1.00078 0.000294051 0
1.00074 0.000247436 0
1.0007 0.000202714 0
1.00067 0.00015947 0
1.00065 0.000117292 0
1.00064 7.61419e-05 0
1.00063 3.59812e-05 0
1 0 0
1.00007 -0.00105226 0
1.00024 -0.0016003 0
1.00047 -0.00179729 0
1.0007 -0.00179638 0
1.00093 -0.00175016 0
1.00117 -0.00181121 0
1.00141 -0.00190858 0
1.00167 -0.00197132 0
1.00194 -0.00202914 0
1.00222 -0.00211171 0
1.00252 -0.00220599 0
1.00283 -0.00229894 0
1.00316 -0.00239225 0
1.00352 -0.00248765 0
1.00389 -0.00258257 0
1.00428 -0.00267444 0
1.00469 -0.00275835 0
1.00512 -0.00282937 0
1.00557 -0.00288525 0
1.00603 -0.00292373 0
1.00651 -0.00294088 0
1.00699 -0.00293273 0
1.00748 -0.00289287 0
1.00798 -0.00281485 0
1.00846 -0.0026983 0
1.00891 -0.00254282 0
1.00934 -0.00234895 0
1.00974 -0.00211723 0
1.0101 -0.00184495 0
1.01042 -0.00152942 0
1.01068 -0.00118265 0
1.01087 -0.000816673 0
1.01097 -0.000438701 0
1.011 -5.59643e-05 0
1.01097 0.000328061 0
1.01087 0.000709899 0
1.01071 0.00107885 0
1.01048 0.00142423 0
1.01019 0.00173744 0
1.00984 0.0020099 0
1.00945 0.00224162 0
1.00903 0.00243264 0
1.00858 0.00258333 0
1.00812 0.00269407 0
1.00765 0.00276562 0
1.00717 0.00279876 0
1.0067 0.00279862 0
1.00623 0.0027703 0
1.00579 0.00271807 0
1.00536 0.00264621 0
1.00495 0.00255778 0
1.00457 0.00245585 0
1.0042 0.00234382 0
1.00386 0.00222512 0
1.00354 0.0021022 0
1.00325 0.00197752 0
1.00297 0.00185263 0
1.00272 0.00172912 0
1.00249 0.00160811 0
1.00227 0.00149071 0
1.00208 0.00137749 0
1.0019 0.001269 0
1.00174 0.00116545 0
1.00159 0.00106706 0
1.00145 0.000973816 0
1.00133 0.000885725 0
1.00122 0.000802591 0
1.00112 0.000724221 0
1.00103 0.000650345 0
1.00096 0.000580693 0
1.00089 0.000514947 0
1.00082 0.000452786 0
1.00077 0.000393829 0
1.00073 0.000337697 0
1.00069 0.000284083 0
1.00065 0.000232682 0
1.00063 0.000183012 0
1.00061 0.000134589 0
1.00059 8.73632e-05 0
1.00059 4.12841e-05 0
1 0 0
1.00007 -0.00118404 0
1.00023 -0.00180115 0
1.00045 -0.00202365 0
1.00066 -0.00202386 0
1.00088 -0.00197351 0
1.00111 -0.00204432 0
1.00134 -0.00215668 0
1.00159 -0.00223097 0
1.00185 -0.00230038 0
1.00213 -0.00239811 0
1.00242 -0.00250975 0
1.00273 -0.00262089 0
1.00306 -0.00273366 0
1.00341 -0.00285021 0
1.00378 -0.00296654 0
1.00418 -0.00307865 0
1.0046 -0.00318295 0
1.00504 -0.00327584 0
1.00551 -0.00335247 0
1.006 -0.00340797 0
1.0065 -0.00343728 0
1.00702 -0.00343534 0
1.00754 -0.00339702 0
1.00806 -0.00331721 0
1.00858 -0.00318986 0
1.00909 -0.00300892 0
1.00957 -0.00278148 0
1.01002 -0.00251464 0
1.01042 -0.00220319 0
1.01076 -0.00184192 0
1.01105 -0.00143501 0
1.01128 -0.000986642 0
1.01142 -0.000516846 0
1.01147 -4.56609e-05 0
1.01143 0.00041873 0
1.0113 0.000868141 0
1.01109 0.0012982 0
1.01081 0.00170454 0
1.01048 0.0020748 0
1.0101 0.00239663 0
1.00966 0.00266805 0
1.00919 0.00288708 0
1.0087 0.00305627 0
1.00819 0.00317817 0
1.00768 0.00325432 0
1.00718 0.00328628 0
1.00668 0.00327902 0
1.00619 0.0032375 0
1.00572 0.00316725 0
1.00527 0.00307379 0
1.00485 0.00296185 0
1.00445 0.00283613 0
1.00408 0.00270012 0
1.00373 0.00255731 0
1.00341 0.00241053 0
1.00311 0.00226258 0
1.00284 0.00211531 0
1.00259 0.00197055 0
1.00236 0.00182946 0
1.00215 0.00169317 0
1.00196 0.00156222 0
1.00178 0.00143714 0
1.00163 0.00131815 0
1.00148 0.00120547 0
1.00136 0.00109899 0
1.00124 0.000998591 0
1.00113 0.000904039 0
1.00104 0.000815114 0
1.00096 0.000731452 0
1.00088 0.000652693 0
1.00082 0.000578459 0
1.00076 0.000508372 0
1.00071 0.000441984 0
1.00067 0.000378845 0
1.00063 0.000318596 0
1.0006 0.00026088 0
1.00058 0.000205146 0
1.00056 0.000150844 0
1.00054 9.79057e-05 0
1.00054 4.62656e-05 0
1 0 0
1.00006 -0.00130806 0
1.00022 -0.00199035 0
1.00042 -0.0022372 0
1.00062 -0.00223893 0
1.00083 -0.00218537 0
1.00104 -0.00226633 0
1.00126 -0.00239399 0
1.0015 -0.00248052 0
1.00175 -0.00256257 0
1.00202 -0.00267683 0
1.0023 -0.00280742 0
1.0026 -0.0029385 0
1.00293 -0.00307282 0
1.00328 -0.00321315 0
1.00366 -0.00335417 0
1.00406 -0.00349059 0
1.00449 -0.00361954 0
1.00495 -0.00373817 0
1.00543 -0.00384007 0
1.00594 -0.00391881 0
1.00648 -0.00396612 0
1.00703 -0.00397372 0
1.00759 -0.00394012 0
1.00815 -0.00386383 0
1.00872 -0.00373268 0
1.00929 -0.00353448 0
1.00985 -0.00327616 0
1.01035 -0.00296463 0
1.0108 -0.00259963 0
1.01118 -0.00218093 0
1.0115 -0.00170811 0
1.01175 -0.00118075 0
1.01193 -0.000620668 0
1.012 -4.96732e-05 0
1.01196 0.000513438 0
1.01181 0.00104987 0
1.01155 0.0015563 0
1.01123 0.00202942 0
1.01085 0.00245876 0
1.01041 0.00283387 0
1.00992 0.00314886 0
1.00939 0.00339782 0
1.00884 0.00358448 0
1.00828 0.00371254 0
1.00772 0.00378661 0
1.00718 0.00381125 0
1.00664 0.0037914 0
1.00612 0.00373201 0
1.00563 0.00363937 0
1.00516 0.00351982 0
1.00471 0.00337999 0
1.0043 0.00322649 0
1.00392 0.00306297 0
1.00357 0.00289307 0
1.00325 0.00271992 0
1.00295 0.00254668 0
1.00268 0.0023754 0
1.00243 0.00220814 0
1.00221 0.00204601 0
1.00201 0.00189013 0
1.00182 0.00174098 0
1.00165 0.00159907 0
1.0015 0.00146456 0
1.00137 0.00133763 0
1.00125 0.00121804 0
1.00114 0.00110555 0
1.00104 0.000999873 0
1.00095 0.000900723 0
1.00087 0.00080764 0
1.0008 0.00072016 0
1.00074 0.000637842 0
1.00069 0.000560246 0
1.00064 0.000486848 0
1.0006 0.000417123 0
1.00057 0.000350662 0
1.00054 0.000287051 0
1.00052 0.000225674 0
1.0005 0.000165909 0
1.00049 0.000107673 0
1.00048 5.08811e-05 0
1 0 0
1.00006 -0.00142321 0
1.0002 -0.00216623 0
1.00038 -0.00243605 0
1.00057 -0.00243963 0
1.00077 -0.00238384 0
1.00096 -0.00247551 0
1.00117 -0.00261885 0
1.0014 -0.00271804 0
1.00163 -0.00281358 0
1.00189 -0.00294595 0
1.00216 -0.00309752 0
1.00246 -0.00325064 0
1.00278 -0.00340855 0
1.00313 -0.0035745 0
1.0035 -0.00374371 0
1.00391 -0.00391141 0
1.00435 -0.00407159 0
1.00482 -0.00421823 0
1.00533 -0.00434786 0
1.00587 -0.00445701 0
1.00643 -0.00453116 0
1.00703 -0.0045558 0
1.00765 -0.00453302 0
1.00828 -0.00446494 0
1.00892 -0.00433863 0
1.00955 -0.00414117 0
1.01016 -0.00386151 0
1.01075 -0.00348861 0
1.01127 -0.00303971 0
1.0117 -0.00253208 0
1.01205 -0.00197877 0
1.0123 -0.00139282 0
1.01247 -0.000767911 0
1.01255 -9.77279e-05 0
1.01253 0.000584107 0
1.01239 0.00124397 0
1.01214 0.00186113 0
1.01178 0.00241484 0
1.01133 0.0029069 0
1.01082 0.00333913 0
1.01026 0.00370143 0
1.00966 0.00398374 0
1.00904 0.00418781 0
1.00841 0.00431542 0
1.00778 0.00437691 0
1.00717 0.0043826 0
1.00658 0.00433958 0
1.00603 0.0042549 0
1.0055 0.00413464 0
1.00501 0.00398487 0
1.00455 0.00381327 0
1.00413 0.00362753 0
1.00374 0.00343214 0
1.00338 0.00323157 0
1.00306 0.00302925 0
1.00277 0.00282859 0
1.0025 0.00263168 0
1.00226 0.00244061 0
1.00204 0.00225643 0
1.00184 0.0020802 0
1.00167 0.00191242 0
1.00151 0.00175356 0
1.00137 0.00160359 0
1.00124 0.00146246 0
1.00112 0.00132991 0
1.00102 0.00120565 0
1.00093 0.00108925 0
1.00085 0.000980282 0
1.00078 0.000878196 0
1.00071 0.000782455 0
1.00066 0.000692536 0
1.00061 0.000607914 0
1.00057 0.00052799 0
1.00053 0.000452163 0
1.0005 0.000379967 0
1.00048 0.000310941 0
1.00046 0.000244394 0
1.00044 0.000179638 0
1.00043 0.000116569 0
1.00042 5.50858e-05 0
1 0 0
1.00005 -0.00152822 0
1.00018 -0.00232694 0
1.00035 -0.00261819 0
1.00052 -0.00262396 0
1.00069 -0.00256689 0
1.00088 -0.00266961 0
1.00107 -0.00282888 0
1.00128 -0.00294146 0
1.0015 -0.0030515 0
1.00174 -0.00320313 0
1.002 -0.00337726 0
1.00229 -0.0035548 0
1.0026 -0.0037391 0
1.00294 -0.00393351 0
1.00332 -0.00413443 0
1.00373 -0.00433825 0
1.00418 -0.0045355 0
1.00467 -0.00471668 0
1.0052 -0.00488043 0
1.00576 -0.00502541 0
1.00636 -0.00513436 0
1.007 -0.00519004 0
1.00769 -0.00519072 0
1.0084 -0.00513467 0
1.00912 -0.00501032 0
1.00981 -0.00480613 0
1.01049 -0.00450372 0
1.01115 -0.00408471 0
1.01176 -0.00356571 0
1.01229 -0.00296335 0
1.01271 -0.00230704 0
1.013 -0.00162624 0
1.01316 -0.00090481 0
1.01323 -0.000126635 0
1.0132 0.000673821 0
1.01305 0.00146209 0
1.01278 0.00220135 0
1.01237 0.00285478 0
1.01185 0.00342606 0
1.01126 0.00391887 0
1.01061 0.00432515 0
1.00993 0.00463686 0
1.00923 0.00485543 0
1.00853 0.00498231 0
1.00782 0.00502962 0
1.00714 0.00500949 0
1.0065 0.00493366 0
1.0059 0.00481386 0
1.00534 0.00465706 0
1.00483 0.00447024 0
1.00435 0.0042613 0
1.00392 0.00403816 0
1.00352 0.00380631 0
1.00316 0.00357126 0
1.00284 0.00333673 0
1.00255 0.00310643 0
1.00229 0.00288221 0
1.00206 0.00266594 0
1.00185 0.00245871 0
1.00166 0.00226162 0
1.00149 0.00207498 0
1.00135 0.00189908 0
1.00121 0.00173371 0
1.00109 0.00157863 0
1.00099 0.00143347 0
1.0009 0.00129787 0
1.00081 0.00117122 0
1.00074 0.00105293 0
1.00067 0.000942377 0
1.00062 0.000838928 0
1.00057 0.000741968 0