<?xml version="1.0"?>
<VTKFile type="UnstructuredGrid">
  <UnstructuredGrid>
  <Piece NumberOfPoints="961"  NumberOfCells="225">
    <Points>
      <DataArray type="Float64" NumberOfComponents="3" format="ascii">
0 0 0
0.0333333 0 0
0.0666667 0 0
0.1 0 0
0.133333 0 0
0.166667 0 0
0.2 0 0
0.233333 0 0
0.266667 0 0
0.3 0 0
0.333333 0 0
0.366667 0 0
0.4 0 0
0.433333 0 0
0.466667 0 0
0.5 0 0
0.533333 0 0
0.566667 0 0
0.6 0 0
0.633333 0 0
0.666667 0 0
0.7 0 0
0.733333 0 0
0.766667 0 0
0.8 0 0
0.833333 0 0
0.866667 0 0
0.9 0 0
0.933333 0 0
0.966667 0 0
1 0 0
0 0.0333333 0
0.0333333 0.0333333 0
0.0666667 0.0333333 0
0.1 0.0333333 0
0.133333 0.0333333 0
0.166667 0.0333333 0
0.2 0.0333333 0
0.233333 0.0333333 0
0.266667 0.0333333 0
0.3 0.0333333 0
0.333333 0.0333333 0
0.366667 0.0333333 0
0.4 0.0333333 0
0.433333 0.0333333 0
0.466667 0.0333333 0
0.5 0.0333333 0
0.533333 0.0333333 0
0.566667 0.0333333 0
0.6 0.0333333 0
0.633333 0.0333333 0
0.666667 0.0333333 0
0.7 0.0333333 0
0.733333 0.0333333 0
0.766667 0.0333333 0
0.8 0.0333333 0
0.833333 0.0333333 0
0.866667 0.0333333 0
0.9 0.0333333 0
0.933333 0.0333333 0
0.966667 0.0333333 0
1 0.0333333 0
0 0.0666667 0
0.0333333 0.0666667 0
0.0666667 0.0666667 0
0.1 0.0666667 0
0.133333 0.0666667 0
0.166667 0.0666667 0
0.2 0.0666667 0
0.233333 0.0666667 0
0.266667 0.0666667 0
0.3 0.0666667 0
0.333333 0.0666667 0
0.366667 0.0666667 0
0.4 0.0666667 0
0.433333 0.0666667 0
0.466667 0.0666667 0
0.5 0.0666667 0
0.533333 0.0666667 0
0.566667 0.0666667 0
0.6 0.0666667 0
0.633333 0.0666667 0
0.666667 0.0666667 0
0.7 0.0666667 0
0.733333 0.0666667 0
0.766667 0.0666667 0
0.8 0.0666667 0
0.833333 0.0666667 0
0.866667 0.0666667 0
0.9 0.0666667 0
0.933333 0.0666667 0
0.966667 0.0666667 0
1 0.0666667 0
0 0.1 0
0.0333333 0.1 0
0.0666667 0.1 0
0.1 0.1 0
0.133333 0.1 0
0.166667 0.1 0
0.2 0.1 0
0.233333 0.1 0
0.266667 0.1 0
0.3 0.1 0
0.333333 0.1 0
0.366667 0.1 0
0.4 0.1 0
0.433333 0.1 0
0.466667 0.1 0
0.5 0.1 0
0.533333 0.1 0
0.566667 0.1 0
0.6 0.1 0
0.633333 0.1 0
0.666667 0.1 0
0.7 0.1 0
0.733333 0.1 0
0.766667 0.1 0
0.8 0.1 0
0.833333 0.1 0
0.866667 0.1 0
0.9 0.1 0
0.933333 0.1 0
0.966667 0.1 0
1 0.1 0
0 0.133333 0
0.0333333 0.133333 0
0.0666667 0.133333 0
0.1 0.133333 0
0.133333 0.133333 0
0.166667 0.133333 0
0.2 0.133333 0
0.233333 0.133333 0
0.266667 0.133333 0
0.3 0.133333 0
0.333333 0.133333 0
0.366667 0.133333 0
0.4 0.133333 0
0.433333 0.133333 0
0.466667 0.133333 0
0.5 0.133333 0
0.533333 0.133333 0
0.566667 0.133333 0
0.6 0.133333 0
0.633333 0.133333 0
0.666667 0.133333 0
0.7 0.133333 0
0.733333 0.133333 0
0.766667 0.133333 0
0.8 0.133333 0
0.833333 0.133333 0
0.866667 0.133333 0
0.9 0.133333 0
0.933333 0.133333 0
0.966667 0.133333 0
1 0.133333 0
0 0.166667 0
0.0333333 0.166667 0
0.0666667 0.166667 0
0.1 0.166667 0
0.133333 0.166667 0
0.166667 0.166667 0
0.2 0.166667 0
0.233333 0.166667 0
0.266667 0.166667 0
0.3 0.166667 0
0.333333 0.166667 0
0.366667 0.166667 0
0.4 0.166667 0
0.433333 0.166667 0
0.466667 0.166667 0
0.5 0.166667 0
0.533333 0.166667 0
0.566667 0.166667 0
0.6 0.166667 0
0.633333 0.166667 0
0.666667 0.166667 0
0.7 0.166667 0
0.733333 0.166667 0
0.766667 0.166667 0
0.8 0.166667 0
0.833333 0.166667 0
0.866667 0.166667 0
0.9 0.166667 0
0.933333 0.166667 0
0.966667 0.166667 0
1 0.166667 0
0 0.2 0
0.0333333 0.2 0
0.0666667 0.2 0
0.1 0.2 0
0.133333 0.2 0
0.166667 0.2 0
0.2 0.2 0
0.233333 0.2 0
0.266667 0.2 0
0.3 0.2 0
0.333333 0.2 0
0.366667 0.2 0
0.4 0.2 0
0.433333 0.2 0
0.466667 0.2 0
0.5 0.2 0
0.533333 0.2 0
0.566667 0.2 0
0.6 0.2 0
0.633333 0.2 0
0.666667 0.2 0
0.7 0.2 0
0.733333 0.2 0
0.766667 0.2 0
0.8 0.2 0
0.833333 0.2 0
0.866667 0.2 0
0.9 0.2 0
0.933333 0.2 0
0.966667 0.2 0
1 0.2 0
0 0.233333 0
0.0333333 0.233333 0
0.0666667 0.233333 0
0.1 0.233333 0
0.133333 0.233333 0
0.166667 0.233333 0
0.2 0.233333 0
0.233333 0.233333 0
0.266667 0.233333 0
0.3 0.233333 0
0.333333 0.233333 0
0.366667 0.233333 0
0.4 0.233333 0
0.433333 0.233333 0
0.466667 0.233333 0
0.5 0.233333 0
0.533333 0.233333 0
0.566667 0.233333 0
0.6 0.233333 0
0.633333 0.233333 0
0.666667 0.233333 0
0.7 0.233333 0
0.733333 0.233333 0
0.766667 0.233333 0
0.8 0.233333 0
0.833333 0.233333 0
0.866667 0.233333 0
0.9 0.233333 0
0.933333 0.233333 0
0.966667 0.233333 0
1 0.233333 0
0 0.266667 0
0.0333333 0.266667 0
0.0666667 0.266667 0
0.1 0.266667 0
0.133333 0.266667 0
0.166667 0.266667 0
0.2 0.266667 0
0.233333 0.266667 0
0.266667 0.266667 0
0.3 0.266667 0
0.333333 0.266667 0
0.366667 0.266667 0
0.4 0.266667 0
0.433333 0.266667 0
0.466667 0.266667 0
0.5 0.266667 0
0.533333 0.266667 0
0.566667 0.266667 0
0.6 0.266667 0
0.633333 0.266667 0
0.666667 0.266667 0
0.7 0.266667 0
0.733333 0.266667 0
0.766667 0.266667 0
0.8 0.266667 0
0.833333 0.266667 0
0.866667 0.266667 0
0.9 0.266667 0
0.933333 0.266667 0
0.966667 0.266667 0
1 0.266667 0
0 0.3 0
0.0333333 0.3 0
0.0666667 0.3 0
0.1 0.3 0
0.133333 0.3 0
0.166667 0.3 0
0.2 0.3 0
0.233333 0.3 0
0.266667 0.3 0
0.3 0.3 0
0.333333 0.3 0
0.366667 0.3 0
0.4 0.3 0
0.433333 0.3 0
0.466667 0.3 0
0.5 0.3 0
0.533333 0.3 0
0.566667 0.3 0
0.6 0.3 0
0.633333 0.3 0
0.666667 0.3 0
0.7 0.3 0
0.733333 0.3 0
0.766667 0.3 0
0.8 0.3 0
0.833333 0.3 0
0.866667 0.3 0
0.9 0.3 0
0.933333 0.3 0
0.966667 0.3 0
1 0.3 0
0 0.333333 0
0.0333333 0.333333 0
0.0666667 0.333333 0
0.1 0.333333 0
0.133333 0.333333 0
0.166667 0.333333 0
0.2 0.333333 0
0.233333 0.333333 0
0.266667 0.333333 0
0.3 0.333333 0
0.333333 0.333333 0
0.366667 0.333333 0
0.4 0.333333 0
0.433333 0.333333 0
0.466667 0.333333 0
0.5 0.333333 0
0.533333 0.333333 0
0.566667 0.333333 0
0.6 0.333333 0
0.633333 0.333333 0
0.666667 0.333333 0
0.7 0.333333 0
0.733333 0.333333 0
0.766667 0.333333 0
0.8 0.333333 0
0.833333 0.333333 0
0.866667 0.333333 0
0.9 0.333333 0
0.933333 0.333333 0
0.966667 0.333333 0
1 0.333333 0
0 0.366667 0
0.0333333 0.366667 0
0.0666667 0.366667 0
0.1 0.366667 0
0.133333 0.366667 0
0.166667 0.366667 0
0.2 0.366667 0
0.233333 0.366667 0
0.266667 0.366667 0
0.3 0.366667 0
0.333333 0.366667 0
0.366667 0.366667 0
0.4 0.366667 0
0.433333 0.366667 0
0.466667 0.366667 0
0.5 0.366667 0
0.533333 0.366667 0
0.566667 0.366667 0
0.6 0.366667 0
0.633333 0.366667 0
0.666667 0.366667 0
0.7 0.366667 0
0.733333 0.366667 0
0.766667 0.366667 0
0.8 0.366667 0
0.833333 0.366667 0
0.866667 0.366667 0
0.9 0.366667 0
0.933333 0.366667 0
0.966667 0.366667 0
1 0.366667 0
0 0.4 0
0.0333333 0.4 0
0.0666667 0.4 0
0.1 0.4 0
0.133333 0.4 0
0.166667 0.4 0
0.2 0.4 0
0.233333 0.4 0
0.266667 0.4 0
0.3 0.4 0
0.333333 0.4 0
0.366667 0.4 0
0.4 0.4 0
0.433333 0.4 0
0.466667 0.4 0
0.5 0.4 0
0.533333 0.4 0
0.566667 0.4 0
0.6 0.4 0
0.633333 0.4 0
0.666667 0.4 0
0.7 0.4 0
0.733333 0.4 0
0.766667 0.4 0
0.8 0.4 0
0.833333 0.4 0
0.866667 0.4 0
0.9 0.4 0
0.933333 0.4 0
0.966667 0.4 0
1 0.4 0
0 0.433333 0
0.0333333 0.433333 0
0.0666667 0.433333 0
0.1 0.433333 0
0.133333 0.433333 0
0.166667 0.433333 0
0.2 0.433333 0
0.233333 0.433333 0
0.266667 0.433333 0
0.3 0.433333 0
0.333333 0.433333 0
0.366667 0.433333 0
0.4 0.433333 0
0.433333 0.433333 0
0.466667 0.433333 0
0.5 0.433333 0
0.533333 0.433333 0
0.566667 0.433333 0
0.6 0.433333 0
0.633333 0.433333 0
0.666667 0.433333 0
0.7 0.433333 0
0.733333 0.433333 0
0.766667 0.433333 0
0.8 0.433333 0
0.833333 0.433333 0
0.866667 0.433333 0
0.9 0.433333 0
0.933333 0.433333 0
0.966667 0.433333 0
1 0.433333 0
0 0.466667 0
0.0333333 0.466667 0
0.0666667 0.466667 0
0.1 0.466667 0
0.133333 0.466667 0
0.166667 0.466667 0
0.2 0.466667 0
0.233333 0.466667 0
0.266667 0.466667 0
0.3 0.466667 0
0.333333 0.466667 0
0.366667 0.466667 0
0.4 0.466667 0
0.433333 0.466667 0
0.466667 0.466667 0
0.5 0.466667 0
0.533333 0.466667 0
0.566667 0.466667 0
0.6 0.466667 0
0.633333 0.466667 0
0.666667 0.466667 0
0.7 0.466667 0
0.733333 0.466667 0
0.766667 0.466667 0
0.8 0.466667 0
0.833333 0.466667 0
0.866667 0.466667 0
0.9 0.466667 0
0.933333 0.466667 0
0.966667 0.466667 0
1 0.466667 0
0 0.5 0
0.0333333 0.5 0
0.0666667 0.5 0
0.1 0.5 0
0.133333 0.5 0
0.166667 0.5 0
0.2 0.5 0
0.233333 0.5 0
0.266667 0.5 0
0.3 0.5 0
0.333333 0.5 0
0.366667 0.5 0
0.4 0.5 0
0.433333 0.5 0
0.466667 0.5 0
0.5 0.5 0
0.533333 0.5 0
0.566667 0.5 0
0.6 0.5 0
0.633333 0.5 0
0.666667 0.5 0
0.7 0.5 0
0.733333 0.5 0
0.766667 0.5 0
0.8 0.5 0
0.833333 0.5 0
0.866667 0.5 0
0.9 0.5 0
0.933333 0.5 0
0.966667 0.5 0
1 0.5 0
0 0.533333 0
0.0333333 0.533333 0
0.0666667 0.533333 0
0.1 0.533333 0
0.133333 0.533333 0
0.166667 0.533333 0
0.2 0.533333 0
0.233333 0.533333 0
0.266667 0.533333 0
0.3 0.533333 0
0.333333 0.533333 0
0.366667 0.533333 0
0.4 0.533333 0
0.433333 0.533333 0
0.466667 0.533333 0
0.5 0.533333 0
0.533333 0.533333 0
0.566667 0.533333 0
0.6 0.533333 0
0.633333 0.533333 0
0.666667 0.533333 0
0.7 0.533333 0
0.733333 0.533333 0
0.766667 0.533333 0
0.8 0.533333 0
0.833333 0.533333 0
0.866667 0.533333 0
0.9 0.533333 0
0.933333 0.533333 0
0.966667 0.533333 0
1 0.533333 0
0 0.566667 0
0.0333333 0.566667 0
0.0666667 0.566667 0
0.1 0.566667 0
0.133333 0.566667 0
0.166667 0.566667 0
0.2 0.566667 0
0.233333 0.566667 0
0.266667 0.566667 0
0.3 0.566667 0
0.333333 0.566667 0
0.366667 0.566667 0
0.4 0.566667 0
0.433333 0.566667 0
0.466667 0.566667 0
0.5 0.566667 0
0.533333 0.566667 0
0.566667 0.566667 0
0.6 0.566667 0
0.633333 0.566667 0
0.666667 0.566667 0
0.7 0.566667 0
0.733333 0.566667 0
0.766667 0.566667 0
0.8 0.566667 0
0.833333 0.566667 0
0.866667 0.566667 0
0.9 0.566667 0
0.933333 0.566667 0
0.966667 0.566667 0
1 0.566667 0
0 0.6 0
0.0333333 0.6 0
0.0666667 0.6 0
0.1 0.6 0
0.133333 0.6 0
0.166667 0.6 0
0.2 0.6 0
0.233333 0.6 0
0.266667 0.6 0
0.3 0.6 0
0.333333 0.6 0
0.366667 0.6 0
0.4 0.6 0
0.433333 0.6 0
0.466667 0.6 0
0.5 0.6 0
0.533333 0.6 0
0.566667 0.6 0
0.6 0.6 0
0.633333 0.6 0
0.666667 0.6 0
0.7 0.6 0
0.733333 0.6 0
0.766667 0.6 0
0.8 0.6 0
0.833333 0.6 0
0.866667 0.6 0
0.9 0.6 0
0.933333 0.6 0
0.966667 0.6 0
1 0.6 0
0 0.633333 0
0.0333333 0.633333 0
0.0666667 0.633333 0
0.1 0.633333 0
0.133333 0.633333 0
0.166667 0.633333 0
0.2 0.633333 0
0.233333 0.633333 0
0.266667 0.633333 0
[...]
    <PointData>
      <DataArray type="Float64" NumberOfComponents="3" Name="Velocity" format="ascii">
0 0 0
0 0 0
0 0 0
0 0 0
0 0 0
0 0 0
0 0 0
0 0 0
0 0 0
0 0 0
0 0 0
0 0 0
0 0 0
0 0 0
0 0 0
0 0 0
0 0 0
0 0 0
0 0 0
0 0 0
0 0 0
0 0 0
0 0 0
0 0 0
0 0 0
0 0 0
0 0 0
0 0 0
0 0 0
0 0 0
0 0 0
0 0 0
-0.00061244 0.000578743 0
-0.00174998 0.00108765 0
-0.00341554 0.00148137 0
-0.00561202 0.0017146 0
-0.00804458 0.00180125 0
-0.0104183 0.00175527 0
-0.0127046 0.00163736 0
-0.0148745 0.00150821 0
-0.0168566 0.00135043 0
-0.018579 0.00114665 0
-0.0200103 0.000913718 0
-0.0211193 0.000668519 0
-0.0218839 0.000412305 0
-0.0222822 0.000146336 0
-0.0223088 -0.000123585 0
-0.0219584 -0.000391651 0
-0.0212459 -0.000647487 0
-0.0201863 -0.000880713 0
-0.018819 -0.00109185 0
-0.0171833 -0.00128141 0
-0.0153247 -0.0014276 0
-0.0132884 -0.00150862 0
-0.011161 -0.00155478 0
-0.00902925 -0.00159637 0
-0.006893 -0.0015833 0
-0.00475224 -0.0014655 0
-0.00284826 -0.00123737 0
-0.00142236 -0.000893286 0
-0.000473331 -0.00046894 0
0 0 0
0 0 0
-0.000818679 0.00142563 0
-0.00316653 0.00292916 0
-0.00656472 0.00415339 0
-0.0105344 0.00474112 0
-0.0147618 0.00490067 0
-0.0189331 0.00484037 0
-0.0229439 0.00461406 0
-0.0266898 0.0042756 0
-0.0300844 0.00382864 0
-0.0330409 0.00327683 0
-0.0355025 0.00264374 0
-0.0374121 0.00195296 0
-0.0387263 0.0012171 0
-0.039402 0.000448784 0
-0.0394338 -0.000331236 0
-0.0388165 -0.00110221 0
-0.0375723 -0.00184039 0
-0.0357233 -0.00252205 0
-0.0333361 -0.00312886 0
-0.0304774 -0.00364248 0
-0.0272392 -0.00404176 0
-0.0237138 -0.00430553 0
-0.0200047 -0.00444271 0
-0.0162155 -0.00446219 0
-0.0124515 -0.0043567 0
-0.00881788 -0.00411893 0
-0.00549933 -0.00355781 0
-0.00268043 -0.00248224 0
-0.000725786 -0.00119528 0
0 0 0
0 0 0
-0.00120329 0.003242 0
-0.00461574 0.00623581 0
-0.00940187 0.00849643 0
-0.0147262 0.00953888 0
-0.0203024 0.00977931 0
-0.0258442 0.00963385 0
-0.0311729 0.00917506 0
-0.0361096 0.00847549 0
-0.0405684 0.00756538 0
-0.0444632 0.00647496 0
-0.0477121 0.00523182 0
-0.0502331 0.00386353 0
-0.0519702 0.00240239 0
-0.0528676 0.000880651 0
-0.0529176 -0.000662199 0
-0.0521127 -0.00218669 0
-0.050481 -0.00365004 0
-0.0480505 -0.00500947 0
-0.044904 -0.00621786 0
-0.0411245 -0.00722806 0
-0.0368441 -0.00801869 0
-0.0321951 -0.00856838 0
-0.0272814 -0.00886841 0
-0.022207 -0.00891008 0
-0.0171646 -0.00870323 0
-0.012347 -0.00825772 0
-0.00788814 -0.00722583 0
-0.00392208 -0.00525983 0
-0.00108173 -0.00272834 0
0 0 0
0 0 0
-0.00235083 0.0067292 0
-0.00646372 0.0117189 0
-0.0118813 0.0149909 0
-0.0181462 0.0165672 0
-0.0248169 0.0169182 0
-0.0314517 0.0165143 0
-0.0378466 0.0155653 0
-0.0437976 0.0142812 0
-0.0491935 0.0126914 0
-0.0539229 0.0108255 0
-0.0578745 0.00871968 0
-0.060937 0.00641044 0
-0.0630584 0.00395616 0
-0.0641869 0.00141524 0
-0.0643025 -0.00115572 0
-0.0633854 -0.00370013 0
-0.0614742 -0.00614777 0
-0.0586077 -0.00842843 0
-0.0548755 -0.0104656 0
-0.0503672 -0.012183 0
-0.04524 -0.0135346 0
-0.0396512 -0.0144748 0
-0.0337416 -0.0150365 0
-0.0276519 -0.0152527 0
-0.0215214 -0.015006 0
-0.0154895 -0.0141793 0
-0.00994961 -0.0125059 0
-0.00529516 -0.00971899 0
-0.00186551 -0.00561742 0
0 0 0
0 0 0
-0.00319278 0.0103561 0
-0.00815317 0.0174815 0
-0.0144975 0.0218722 0
-0.0218422 0.0240241 0
-0.0296264 0.0245002 0
-0.0372894 0.0238631 0
-0.0446498 0.0224483 0
-0.0515265 0.0205913 0
-0.0577737 0.0183106 0
-0.0632459 0.015625 0
-0.0678223 0.0125939 0
-0.0713819 0.00927707 0
-0.0738697 0.00575374 0
-0.0752304 0.00210323 0
-0.0754334 -0.00159513 0
-0.0744477 -0.005262 0
-0.0723153 -0.00879537 0
-0.0690779 -0.0120932 0
-0.0648287 -0.0150508 0
-0.0596609 -0.0175636 0
-0.0537428 -0.0195482 0
-0.0472431 -0.0209213 0
-0.0403586 -0.021765 0
-0.033286 -0.0221617 0
-0.0261139 -0.0218911 0
-0.0189306 -0.0207331 0
-0.0122812 -0.0183891 0
-0.00671077 -0.0145605 0
-0.00251758 -0.00863496 0
0 0 0
0 0 0
-0.00266061 0.0125917 0
-0.0091268 0.0216269 0
-0.017745 0.0273756 0
-0.0268616 0.0301077 0
-0.0360519 0.0307081 0
-0.0448911 0.0300617 0
-0.0532673 0.0284875 0
-0.0610687 0.0263043 0
-0.068123 0.023527 0
-0.074258 0.0201703 0
-0.0793877 0.0163412 0
-0.0834261 0.0121468 0
-0.0862831 0.00767041 0
-0.0878689 0.00299526 0
-0.088155 -0.00176377 0
-0.0871131 -0.00649178 0
-0.0847679 -0.0110546 0
-0.0811442 -0.0153181 0
-0.076342 -0.0191521 0
-0.0704611 -0.0224264 0
-0.0636687 -0.0250181 0
-0.056132 -0.0268041 0
-0.0481059 -0.0278718 0
-0.0398453 -0.028309 0
-0.0315339 -0.0279849 0
-0.0233554 -0.0267687 0
-0.0154805 -0.0238667 0
-0.00808 -0.0184853 0
-0.00247837 -0.0105534 0
0 0 0
0 0 0
-0.00236986 0.0174134 0
-0.0100341 0.0292987 0
-0.020416 0.0364407 0
-0.0309388 0.0396242 0
-0.0413969 0.0401236 0
-0.0515848 0.0392132 0
-0.0612907 0.037177 0
-0.070303 0.0342991 0
-0.0784382 0.0306452 0
-0.085513 0.026281 0
-0.0914479 0.0213301 0
-0.0961634 0.0159162 0
-0.0995446 0.0101354 0
-0.101477 0.00408372 0
-0.101931 -0.00209085 0
-0.100879 -0.00824028 0
-0.0983275 -0.0141997 0
-0.0942823 -0.0198042 0
-0.088841 -0.0248834 0
-0.0821009 -0.029267 0
-0.07424 -0.0327893 0
-0.0654365 -0.0352845 0
-0.0559907 -0.0367813 0
-0.0462029 -0.0373083 0
-0.0364873 -0.0368687 0
-0.0272577 -0.0354656 0
-0.0182779 -0.0320062 0
-0.00931171 -0.0253976 0
-0.00250405 -0.0149566 0
0 0 0
0 0 0
-0.0039361 0.0287986 0
-0.0115247 0.0456404 0
-0.0213029 0.0540069 0
-0.0318081 0.0573799 0
-0.042965 0.0573282 0
-0.0546984 0.0554202 0
-0.0663116 0.0520107 0
-0.0771079 0.0474542 0
-0.0869161 0.0419699 0
-0.0955647 0.0357768 0
-0.10288 0.0289294 0
-0.108688 0.021482 0
-0.1129 0.013578 0
-0.115428 0.00536099 0
-0.116225 -0.00300561 0
-0.115244 -0.0113583 0
-0.11249 -0.0195047 0
-0.107968 -0.0272525 0
-0.101751 -0.0343589 0
-0.0939131 -0.0405809 0
-0.084679 -0.0457066 0
-0.0742753 -0.0495239 0
-0.0630203 -0.0519179 0
-0.0512322 -0.0527733 0
-0.0396797 -0.052124 0
-0.0291315 -0.0500038 0
-0.0194043 -0.0458756 0
-0.0103148 -0.0392019 0
-0.00335077 -0.0254283 0
0 0 0
0 0 0
-0.0049412 0.0376394 0
-0.0117575 0.0585258 0
-0.0203687 0.0682422 0
-0.0306945 0.0723716 0
-0.0424384 0.0724733 0
-0.0553044 0.0701066 0
-0.0683134 0.0657638 0
-0.0804867 0.0599372 0
-0.0916315 0.0529637 0
-0.101555 0.0451803 0
-0.110001 0.0366093 0
-0.116712 0.0272729 0
-0.121626 0.0173705 0
-0.124682 0.00710144 0
-0.125817 -0.00335782 0
-0.124966 -0.0138308 0
-0.122134 -0.0240965 0
-0.117322 -0.0339337 0
-0.11058 -0.0430273 0
-0.101958 -0.0510621 0
-0.0917082 -0.0577676 0
-0.0800836 -0.0628737 0
-0.0674303 -0.0661079 0
-0.0540947 -0.0671978 0
-0.04106 -0.066108 0
-0.0293094 -0.062803 0
-0.0190403 -0.0575045 0
-0.0104502 -0.0504343 0
-0.00396236 -0.0338478 0
0 0 0
0 0 0
-0.00296705 0.0348278 0
-0.00889189 0.055829 0
-0.0175765 0.0673147 0
-0.0288229 0.0735959 0
-0.0414996 0.0757104 0
-0.0544753 0.0746959 0
-0.0672796 0.0712114 0
-0.0794423 0.0659155 0
-0.0906594 0.0590894 0
-0.100627 0.051014 0
-0.109129 0.04184 0
-0.115949 0.0317179 0
-0.121 0.0208852 0
-0.124196 0.00957946 0
-0.125483 -0.00199727 0
-0.124805 -0.0136428 0
-0.12214 -0.0251017 0
-0.117466 -0.0361182 0
-0.110834 -0.0463375 0
-0.102296 -0.0554045 0
-0.0920503 -0.0629701 0
-0.0802964 -0.0686851 0
-0.0674562 -0.0721778 0
-0.0539519 -0.073076 0
-0.0405766 -0.0711783 0
-0.0281239 -0.0662828 0
-0.0173669 -0.0589227 0
-0.00907906 -0.049631 0
-0.00328261 -0.0320945 0
0 0 0
0 0 0
-0.00125759 0.0282245 0
-0.00678769 0.0481198 0
-0.0158991 0.0615568 0
-0.0279005 0.0704063 0
-0.0410734 0.0750969 0
-0.0536991 0.0760572 0
-0.0658291 0.074048 0
-0.0775148 0.0698297 0
-0.0883496 0.0636241 0
-0.0979267 0.0556528 0
-0.1061 0.046239 0
-0.112722 0.0357059 0
-0.117682 0.0243206 0
-0.120865 0.01235 0
-0.122231 2.24414e-05 0
-0.121738 -0.0124337 0
-0.119342 -0.0247374 0
-0.114998 -0.0366079 0
-0.108759 -0.0476675 0
-0.100678 -0.0575387 0
-0.0908861 -0.0657868 0
-0.0795134 -0.0719769 0
-0.0670279 -0.0756515 0
-0.0538973 -0.076353 0
-0.0406465 -0.0737003 0
-0.0278005 -0.0673124 0
-0.0165814 -0.0576716 0
-0.00821147 -0.04526 0
-0.00268594 -0.0270464 0
0 0 0
0 0 0
-0.00305675 0.0256901 0
-0.00930486 0.0459678 0
-0.0183091 0.0613006 0
-0.0296344 0.072156 0
-0.0420847 0.0786903 0
-0.054464 0.0810596 0
-0.066581 0.0799682 0
-0.0782444 0.0761205 0
-0.0890516 0.0698452 0
-0.0986 0.0614715 0
-0.106749 0.0514236 0
-0.113357 0.0401257 0
-0.118332 0.0278748 0
-0.121583 0.0149679 0
-0.123067 0.00164772 0
-0.122744 -0.0118428 0
-0.120572 -0.025221 0
-0.116514 -0.0382045 0
-0.110599 -0.0503951 0
-0.102855 -0.0613951 0
-0.0933966 -0.0706906 0
-0.0823345 -0.0777677 0
-0.0700751 -0.0820532 0
-0.0570245 -0.0829737 0
-0.0436865 -0.0800395 0
-0.0305646 -0.0727608 0
-0.0188809 -0.0612924 0
-0.00985769 -0.0457892 0
-0.00354674 -0.0255817 0
0 0 0
0 0 0
-0.00545595 0.0271862 0
-0.0128601 0.0496245 0
-0.0220739 0.0671909 0
-0.0329584 0.0797611 0
-0.0450095 0.0875059 0
-0.0577228 0.0905961 0
-0.0704625 0.0896941 0
-0.082593 0.0854625 0
-0.0937548 0.0784115 0
-0.103589 0.0690515 0
-0.111956 0.057868 0
-0.118718 0.0453464 0
-0.123822 0.0318056 0
-0.127215 0.0175646 0
-0.128856 0.00286922 0
-0.128704 -0.0120346 0
-0.126723 -0.0268731 0
-0.122878 -0.0413722 0
-0.117158 -0.0551168 0
-0.109551 -0.0676918 0
-0.100148 -0.0784982 0
-0.0890409 -0.0869371 0
-0.0765507 -0.0922981 0
-0.0630002 -0.0938711 0
-0.048987 -0.0910332 0
-0.0351089 -0.083162 0
-0.0224875 -0.0700436 0
-0.012244 -0.0514643 0
-0.00465578 -0.0279433 0
0 0 0
0 0 0
-0.00554662 0.0326745 0
-0.0138703 0.0593416 0
-0.0244604 0.0798722 0
-0.0368065 0.0941372 0
-0.050324 0.102559 0
-0.0644283 0.10556 0
-0.0784006 0.103948 0
-0.0915223 0.0985304 0
-0.103448 0.0899814 0
-0.113834 0.078974 0
-0.122601 0.0660464 0
-0.129671 0.0517368 0
-0.135021 0.0363702 0
-0.138624 0.0202713 0
-0.140459 0.00367761 0
-0.1405 -0.0131737 0
-0.138685 -0.0300142 0
-0.134953 -0.0465752 0
-0.129241 -0.0624287 0
-0.121488 -0.0771469 0
-0.111708 -0.0900266 0
-0.099914 -0.100365 0
-0.0864076 -0.107302 0
-0.0714908 -0.109978 0
-0.0558386 -0.107519 0
-0.0401264 -0.0990503 0
-0.0256228 -0.0841837 0
-0.0135967 -0.0625304 0
-0.00480385 -0.0343745 0
0 0 0
0 0 0
-0.00491289 0.039744 0
-0.0141336 0.0715424 0
-0.0265489 0.095413 0
-0.0410452 0.111373 0
-0.0566622 0.120219 0
-0.0724396 0.122743 0
-0.0877136 0.119988 0
-0.101821 0.112997 0
-0.114455 0.102612 0
-0.12531 0.089676 0
-0.134383 0.0747736 0
-0.14167 0.0584889 0
-0.147186 0.0411455 0
-0.150948 0.0230676 0
-0.152953 0.0044669 0
-0.153198 -0.0144444 0
-0.151589 -0.0334172 0
-0.148031 -0.0522022 0
-0.142397 -0.070363 0
-0.134564 -0.0874632 0
-0.124449 -0.102705 0
-0.111969 -0.115289 0
-0.0973904 -0.124165 0
-0.0809789 -0.128279 0
-0.063478 -0.126447 0
-0.0456308 -0.117483 0
-0.0289377 -0.100807 0
-0.0148993 -0.0758356 0
-0.00481894 -0.0423175 0
0 0 0
0 0 0
-0.00513891 0.0459838 0
-0.0154487 0.0826505 0
-0.0294194 0.109882 0
-0.0455409 0.127559 0
-0.0626581 0.136854 0
-0.0796156 0.138937 0
-0.0957199 0.135076 0
-0.110277 0.126535 0
-0.123098 0.11436 0
-0.133992 0.0995948 0
-0.143 0.0828647 0
-0.150165 0.0647942 0
-0.155576 0.0457084 0
-0.159322 0.0259325 0
-0.161414 0.00563112 0
-0.161865 -0.0150309 0
-0.160565 -0.0358549 0
-0.157404 -0.056642 0
-0.152177 -0.0769519 0
-0.144677 -0.0963438 0
-0.134745 -0.113961 0
-0.122222 -0.128948 0
-0.107244 -0.139987 0
-0.0899473 -0.14576 0
-0.0711417 -0.14477 0
-0.0516359 -0.135519 0
-0.0330828 -0.117006 0
-0.0171353 -0.0882275 0
-0.00552908 -0.0492148 0
0 0 0
0 0 0
-0.00579898 0.0527125 0
-0.0173229 0.0943917 0
-0.032741 0.124924 0
-0.0502227 0.144196 0
-0.068444 0.153745 0
-0.0860809 0.155109 0
-0.102458 0.149868 0
-0.116899 0.139598 0
-0.129345 0.125531 0
-0.13974 0.108895 0
-0.148198 0.0903685 0
-0.154836 0.070629 0
-0.159823 0.0499825 0
-0.163331 0.0287349 0
-0.165391 0.00698507 0
-0.166037 -0.0151681 0
-0.165151 -0.0376005 0
-0.162617 -0.0601881 0
-0.158151 -0.0825193 0
-0.151469 -0.104182 0
-0.142305 -0.124268 0
-0.130394 -0.14187 0
-0.115707 -0.155409 0
-0.0982155 -0.163307 0
-0.0786935 -0.163643 0
-0.057914 -0.154495 0
-0.0376947 -0.134335 0
-0.0198536 -0.101634 0
-0.0065642 -0.0567395 0
0 0 0
0 0 0
-0.00646742 0.0612486 0
-0.0192636 0.108492 0
-0.0361829 0.142186 0
-0.0550196 0.162785 0
-0.0741524 0.172172 0
-0.0919599 0.172225 0
-0.107965 0.165022 0
-0.121691 0.15264 0
-0.133165 0.13643 0
-0.142416 0.117741 0
-0.149721 0.0973339 0
-0.155358 0.0759695 0
-0.15956 0.0538915 0
-0.162559 0.0313436 0
-0.16443 0.00834355 0
-0.16525 -0.0150908 0
-0.164889 -0.0389273 0
-0.163214 -0.063134 0
-0.159891 -0.0873892 0
-0.154582 -0.111372 0
-0.146837 -0.134097 0
-0.136206 -0.154582 0
-0.122518 -0.17107 0
-0.105603 -0.181808 0
-0.0859973 -0.184224 0
-0.064237 -0.175747 0
-0.0424098 -0.154344 0
-0.0226032 -0.117982 0
-0.00755425 -0.0665651 0
0 0 0
0 0 0
-0.00716426 0.0710663 0
-0.0213678 0.124326 0
-0.0397667 0.161012 0
-0.059517 0.18236 0
-0.0788694 0.190857 0
-0.0960745 0.188991 0
-0.110863 0.179341 0
-0.122965 0.164484 0
-0.132577 0.145922 0
-0.139895 0.125157 0
-0.145368 0.102986 0
-0.149447 0.0802093 0
-0.152427 0.0569882 0
-0.154607 0.0334848 0
-0.156107 0.00961717 0
-0.157049 -0.0146971 0
-0.1573 -0.0395397 0
-0.156726 -0.0649923 0
-0.154951 -0.0908572 0
-0.151599 -0.116937 0
-0.146037 -0.14224 0
-0.137633 -0.165774 0
-0.125974 -0.185596 0
-0.110649 -0.199761 0
-0.091911 -0.205027 0
-0.0700133 -0.19815 0
-0.0471325 -0.176282 0
-0.0254455 -0.136576 0
-0.00853901 -0.0781195 0
0 0 0
0 0 0
-0.00790955 0.0816395 0
-0.0237323 0.141267 0
-0.0435139 0.18075 0
-0.0633002 0.201952 0
-0.081681 0.208524 0
-0.0972463 0.204117 0
-0.109772 0.191627 0
-0.119033 0.173951 0
-0.125602 0.15287 0
-0.130052 0.130165 0
-0.132939 0.106551 0
-0.134816 0.0827425 0
-0.136068 0.0588255 0
-0.137077 0.0348852 0
-0.137995 0.0107166 0
-0.138976 -0.0138851 0
-0.139909 -0.039142 0
-0.140684 -0.0652759 0
-0.140887 -0.0922188 0
-0.140102 -0.119903 0
-0.137599 -0.147488 0
-0.132647 -0.174136 0
-0.12437 -0.197608 0
-0.111892 -0.215665 0
-0.0952925 -0.224568 0
-0.074651 -0.220577 0
-0.0517674 -0.199394 0
-0.028442 -0.15672 0
-0.00955829 -0.0908305 0
0 0 0
0 0 0
-0.00895292 0.093522 0
-0.0259674 0.159278 0
-0.0462726 0.200528 0
-0.0650976 0.220533 0
-0.0812796 0.224174 0
-0.0936555 0.216329 0
-0.102304 0.200383 0
-0.107304 0.179722 0
-0.109621 0.156267 0
-0.11022 0.131942 0
-0.109738 0.107334 0
-0.108808 0.0830308 0
-0.107879 0.0590153 0
-0.107394 0.0352704 0
-0.107525 0.0114652 0
-0.108443 -0.0127316 0
-0.110078 -0.037687 0
-0.112362 -0.0637683 0
-0.114876 -0.0910654 0
-0.117206 -0.119668 0
-0.118579 -0.148961 0
-0.118223 -0.178331 0
-0.114809 -0.205441 0
-0.107006 -0.227958 0
-0.0944032 -0.24149 0
-0.0765912 -0.241647 0
-0.0550195 -0.22251 0
-0.0311382 -0.178161 0
-0.0108356 -0.105143 0
0 0 0
0 0 0
-0.010544 0.107267 0
-0.0276835 0.178317 0
-0.0468908 0.219477 0
-0.0636378 0.237078 0
-0.0763574 0.236808 0
-0.0834819 0.224354 0
-0.0860724 0.204112 0
-0.0851898 0.180474 0
-0.0820158 0.155104 0
-0.0777321 0.129662 0
-0.0730708 0.104642 0
-0.068764 0.0805359 0
-0.065254 0.0571691 0
-0.0629834 0.0343665 0
-0.0621282 0.0116864 0
-0.0628641 -0.0113132 0
-0.0651717 -0.0351279 0
-0.0690311 -0.0602531 0
-0.0740969 -0.0869881 0
-0.0800233 -0.115632 0
-0.0860288 -0.145778 0
-0.091332 -0.177018 0
-0.0943906 -0.207426 0
-0.0936621 -0.235076 0
-0.0875043 -0.254436 0
-0.074275 -0.259975 0
-0.0555936 -0.244456 0
-0.0330795 -0.200644 0
-0.0125944 -0.121503 0
0 0 0
0 0 0
-0.0114919 0.121431 0
-0.0284283 0.196752 0
-0.0455269 0.235936 0
-0.0575054 0.248952 0
-0.0635059 0.243009 0
-0.0626704 0.225312 0
-0.0570589 0.200903 0
-0.0487309 0.174824 0
-0.0389727 0.148312 0
-0.0290703 0.122606 0
-0.0197669 0.0980551 0
-0.011806 0.075005 0
-0.00555659 0.0531176 0
-0.00138794 0.0320542 0
0.000542523 0.011288 0
7.73149e-05 -0.0097075 0
-0.00281743 -0.0315226 0
-0.0081756 -0.0547475 0
-0.0157878 -0.0798836 0
-0.0254446 -0.107432 0
-0.0364621 -0.137233 0
-0.0481564 -0.169126 0
-0.0589782 -0.201816 0
-0.067378 -0.23401 0
-0.0705386 -0.259565 0
-0.0656426 -0.272338 0
-0.0531628 -0.262991 0
-0.0335718 -0.222186 0
-0.0136056 -0.138373 0
0 0 0
0 0 0
-0.0106057 0.134568 0
-0.0277494 0.212952 0
-0.0423397 0.248241 0
-0.045285 0.253521 0
-0.0393166 0.239359 0
-0.027166 0.216321 0
-0.0112457 0.188849 0
0.0060316 0.161385 0
0.0233223 0.134822 0
0.0392828 0.110056 0
0.0533454 0.0871536 0
0.0649426 0.0661851 0
0.0738515 0.0466915 0
0.0798494 0.0282143 0
0.0828325 0.0101782 0
0.0826967 -0.00799183 0
0.0793554 -0.0269296 0
0.0727218 -0.047269 0
0.0628114 -0.0696482 0
0.0496395 -0.0947057 0
0.0336089 -0.122623 0
0.0151221 -0.15358 0
-0.00443323 -0.186861 0
-0.0236695 -0.221749 0
-0.0394489 -0.253037 0
-0.048634 -0.275514 0
-0.0473996 -0.275874 0
-0.031921 -0.240805 0
-0.0126403 -0.154213 0
0 0 0
0 0 0
-0.00971684 0.149214 0
-0.0221276 0.225415 0
-0.0274526 0.250196 0
-0.0159117 0.245148 0
0.00592211 0.222816 0
0.0314762 0.195747 0
0.0585348 0.167088 0
0.0848821 0.139986 0
0.109348 0.114969 0
0.130763 0.0925629 0
0.148882 0.072528 0
0.163461 0.0546236 0
0.174477 0.0383317 0
0.181905 0.0231343 0
0.185719 0.00845972 0
0.185894 -0.00626394 0
0.182298 -0.0216551 0
0.1748 -0.0383322 0
0.163208 -0.0569782 0
0.147327 -0.0782763 0
0.127156 -0.102742 0
0.102694 -0.130891 0
0.0749163 -0.162532 0
0.0447988 -0.197471 0
0.0149892 -0.232308 0
-0.0118645 -0.263644 0
-0.0275362 -0.275974 0
-0.0238 -0.253794 0
-0.0111298 -0.170629 0
0 0 0
0 0 0
-0.0106567 0.167905 0
-0.00804378 0.232638 0
0.00901083 0.235601 0
0.0416791 0.218195 0
0.0819222 0.19034 0
0.121701 0.161958 0
0.15945 0.13476 0
0.193605 0.110457 0
0.223584 0.0890855 0
0.248807 0.0706822 0
0.26946 0.0547689 0
0.28573 0.0408678 0
0.297826 0.0284788 0
0.305955 0.017102 0
0.310181 0.0062357 0
0.310569 -0.00462155 0
0.30696 -0.0160055 0
0.299198 -0.028452 0
0.286908 -0.0425699 0
0.269715 -0.0589682 0
0.247151 -0.0783881 0
0.21875 -0.101571 0
0.184743 -0.128798 0
0.145362 -0.16035 0
0.102 -0.194837 0
0.0560505 -0.230867 0
0.0171955 -0.256162 0
-0.00488165 -0.258446 0
-0.0105053 -0.189223 0
0 0 0
0 0 0
0.011676 0.164793 0
0.0456539 0.212292 0
0.0941141 0.196598 0
0.149237 0.171807 0
0.204952 0.143746 0
0.255189 0.118239 0
0.299504 0.0957087 0
0.33745 0.0765782 0
0.369278 0.0605329 0
0.395236 0.0472581 0
0.415917 0.0361743 0
0.431911 0.0267019 0
0.443615 0.0184351 0
0.451427 0.0109682 0
0.455485 0.00391983 0
0.455926 -0.00309131 0
0.452587 -0.0104689 0
0.445306 -0.0186167 0
0.433596 -0.0279858 0
0.416974 -0.0390275 0
0.394601 -0.0525327 0
0.365638 -0.0692924 0
0.329439 -0.0898396 0
0.285356 -0.114707 0
0.233156 -0.144131 0
0.172607 -0.178348 0
0.110709 -0.210211 0
0.0544645 -0.232572 0
0.0141394 -0.183235 0
0 0 0
2.77334e-30 0 0
0.0823825 0.114028 0
0.170117 0.142048 0
0.254921 0.125327 0
0.32851 0.10513 0
0.391279 0.0848495 0
0.443621 0.0678754 0
0.486697 0.0537792 0
0.521667 0.0421321 0
0.549677 0.0326718 0
0.571873 0.0251358 0
0.58909 0.0190425 0
0.602163 0.0139102 0
0.61156 0.00950271 0
0.617749 0.00558399 0
0.620897 0.00192585 0
0.621171 -0.00169987 0
0.618426 -0.00553328 0
0.612514 -0.00981453 0
0.602956 -0.0147885 0
0.589277 -0.0207001 0
0.570515 -0.0281476 0
0.54571 -0.0377291 0
0.513398 -0.0498362 0
0.472116 -0.0648604 0
0.420029 -0.0836997 0
0.3553 -0.107252 0
0.276918 -0.13189 0
0.183869 -0.153986 0
0.0877106 -0.125902 0
2.77334e-30 0 0
0.25 0 0
0.359234 0.0482247 0
0.457511 0.0589389 0
0.54052 0.050293 0
0.603948 0.0404369 0
0.652447 0.031113 0
0.690668 0.0240636 0
0.720405 0.0186501 0
0.743452 0.0142342 0
0.761134 0.0107462 0
0.774775 0.00811613 0
0.785084 0.00608167 0
0.792767 0.00438031 0
0.798182 0.00293865 0
0.801685 0.00168327 0
0.803406 0.000527866 0
0.803473 -0.00061388 0
0.801792 -0.0018324 0
0.798264 -0.00321811 0
0.792566 -0.00483943 0
0.78437 -0.00676478 0
0.772958 -0.00928576 0
0.757613 -0.012694 0
0.736844 -0.0171142 0
0.709159 -0.022671 0
0.672387 -0.0301274 0
0.624356 -0.0402465 0
0.558967 -0.0516645 0
0.470119 -0.0630178 0
0.3648 -0.0529238 0
0.25 0 0
1 0 0
1 0 0
1 0 0
1 0 0
1 0 0
1 0 0
1 0 0
1 0 0
1 0 0
1 0 0
1 0 0
1 0 0
1 0 0
1 0 0
1 0 0
1 0 0
1 0 0
1 0 0
1 0 0
1 0 0
1 0 0
1 0 0
1 0 0
1 0 0
1 0 0
1 0 0
1 0 0
1 0 0
1 0 0
1 0 0
1 0 0
      </DataArray> 