<?xml version="1.0"?>
<VTKFile type="UnstructuredGrid">
  <UnstructuredGrid>
  <Piece NumberOfPoints="6561"  NumberOfCells="1600">
    <Points>
      <DataArray type="Float64" NumberOfComponents="3" format="ascii">
0 0 0
0.0125 0 0
0.025 0 0
0.0375 0 0
0.05 0 0
0.0625 0 0
0.075 0 0
0.0875 0 0
0.1 0 0
0.1125 0 0
0.125 0 0
0.1375 0 0
0.15 0 0
0.1625 0 0
0.175 0 0
0.1875 0 0
0.2 0 0
0.2125 0 0
0.225 0 0
0.2375 0 0
0.25 0 0
0.2625 0 0
0.275 0 0
0.2875 0 0
0.3 0 0
0.3125 0 0
0.325 0 0
0.3375 0 0
0.35 0 0
0.3625 0 0
0.375 0 0
0.3875 0 0
0.4 0 0
0.4125 0 0
0.425 0 0
0.4375 0 0
0.45 0 0
0.4625 0 0
0.475 0 0
0.4875 0 0
0.5 0 0
0.5125 0 0
0.525 0 0
0.5375 0 0
0.55 0 0
0.5625 0 0
0.575 0 0
0.5875 0 0
0.6 0 0
0.6125 0 0
0.625 0 0
0.6375 0 0
0.65 0 0
0.6625 0 0
0.675 0 0
0.6875 0 0
0.7 0 0
0.7125 0 0
0.725 0 0
0.7375 0 0
0.75 0 0
0.7625 0 0
0.775 0 0
0.7875 0 0
0.8 0 0
0.8125 0 0
0.825 0 0
0.8375 0 0
0.85 0 0
0.8625 0 0
0.875 0 0
0.8875 0 0
0.9 0 0
0.9125 0 0
0.925 0 0
0.9375 0 0
0.95 0 0
0.9625 0 0
0.975 0 0
0.9875 0 0
1 0 0
0 0.0125 0
0.0125 0.0125 0
0.025 0.0125 0
0.0375 0.0125 0
0.05 0.0125 0
0.0625 0.0125 0
0.075 0.0125 0
0.0875 0.0125 0
0.1 0.0125 0
0.1125 0.0125 0
0.125 0.0125 0
0.1375 0.0125 0
0.15 0.0125 0
0.1625 0.0125 0
0.175 0.0125 0
0.1875 0.0125 0
0.2 0.0125 0
0.2125 0.0125 0
0.225 0.0125 0
0.2375 0.0125 0
0.25 0.0125 0
0.2625 0.0125 0
0.275 0.0125 0
0.2875 0.0125 0
0.3 0.0125 0
0.3125 0.0125 0
0.325 0.0125 0
0.3375 0.0125 0
0.35 0.0125 0
0.3625 0.0125 0
0.375 0.0125 0
0.3875 0.0125 0
0.4 0.0125 0
0.4125 0.0125 0
0.425 0.0125 0
0.4375 0.0125 0
0.45 0.0125 0
0.4625 0.0125 0
0.475 0.0125 0
0.4875 0.0125 0
0.5 0.0125 0
0.5125 0.0125 0
0.525 0.0125 0
0.5375 0.0125 0
0.55 0.0125 0
0.5625 0.0125 0
0.575 0.0125 0
0.5875 0.0125 0
0.6 0.0125 0
0.6125 0.0125 0
0.625 0.0125 0
0.6375 0.0125 0
0.65 0.0125 0
0.6625 0.0125 0
0.675 0.0125 0
0.6875 0.0125 0
0.7 0.0125 0
0.7125 0.0125 0
0.725 0.0125 0
0.7375 0.0125 0
0.75 0.0125 0
0.7625 0.0125 0
0.775 0.0125 0
0.7875 0.0125 0
0.8 0.0125 0
0.8125 0.0125 0
0.825 0.0125 0
0.8375 0.0125 0
0.85 0.0125 0
0.8625 0.0125 0
0.875 0.0125 0
0.8875 0.0125 0
0.9 0.0125 0
0.9125 0.0125 0
0.925 0.0125 0
0.9375 0.0125 0
0.95 0.0125 0
0.9625 0.0125 0
0.975 0.0125 0
0.9875 0.0125 0
1 0.0125 0
0 0.025 0
0.0125 0.025 0
0.025 0.025 0
0.0375 0.025 0
0.05 0.025 0
0.0625 0.025 0
0.075 0.025 0
0.0875 0.025 0
0.1 0.025 0
0.1125 0.025 0
0.125 0.025 0
0.1375 0.025 0
0.15 0.025 0
0.1625 0.025 0
0.175 0.025 0
0.1875 0.025 0
0.2 0.025 0
0.2125 0.025 0
0.225 0.025 0
0.2375 0.025 0
0.25 0.025 0
0.2625 0.025 0
0.275 0.025 0
0.2875 0.025 0
0.3 0.025 0
0.3125 0.025 0
0.325 0.025 0
0.3375 0.025 0
0.35 0.025 0
0.3625 0.025 0
0.375 0.025 0
0.3875 0.025 0
0.4 0.025 0
0.4125 0.025 0
0.425 0.025 0
0.4375 0.025 0
0.45 0.025 0
0.4625 0.025 0
0.475 0.025 0
0.4875 0.025 0
0.5 0.025 0
0.5125 0.025 0
0.525 0.025 0
0.5375 0.025 0
0.55 0.025 0
0.5625 0.025 0
0.575 0.025 0
0.5875 0.025 0
0.6 0.025 0
0.6125 0.025 0
0.625 0.025 0
0.6375 0.025 0
0.65 0.025 0
0.6625 0.025 0
0.675 0.025 0
0.6875 0.025 0
0.7 0.025 0
0.7125 0.025 0
0.725 0.025 0
0.7375 0.025 0
0.75 0.025 0
0.7625 0.025 0
0.775 0.025 0
0.7875 0.025 0
0.8 0.025 0
0.8125 0.025 0
0.825 0.025 0
0.8375 0.025 0
0.85 0.025 0
0.8625 0.025 0
0.875 0.025 0
0.8875 0.025 0
0.9 0.025 0
0.9125 0.025 0
0.925 0.025 0
0.9375 0.025 0
0.95 0.025 0
0.9625 0.025 0
0.975 0.025 0
0.9875 0.025 0
1 0.025 0
0 0.0375 0
0.0125 0.0375 0
0.025 0.0375 0
0.0375 0.0375 0
0.05 0.0375 0
0.0625 0.0375 0
0.075 0.0375 0
0.0875 0.0375 0
0.1 0.0375 0
0.1125 0.0375 0
0.125 0.0375 0
0.1375 0.0375 0
0.15 0.0375 0
0.1625 0.0375 0
0.175 0.0375 0
0.1875 0.0375 0
0.2 0.0375 0
0.2125 0.0375 0
0.225 0.0375 0
0.2375 0.0375 0
0.25 0.0375 0
0.2625 0.0375 0
0.275 0.0375 0
0.2875 0.0375 0
0.3 0.0375 0
0.3125 0.0375 0
0.325 0.0375 0
0.3375 0.0375 0
0.35 0.0375 0
0.3625 0.0375 0
0.375 0.0375 0
0.3875 0.0375 0
0.4 0.0375 0
0.4125 0.0375 0
0.425 0.0375 0
0.4375 0.0375 0
0.45 0.0375 0
0.4625 0.0375 0
0.475 0.0375 0
0.4875 0.0375 0
0.5 0.0375 0
0.5125 0.0375 0
0.525 0.0375 0
0.5375 0.0375 0
0.55 0.0375 0
0.5625 0.0375 0
0.575 0.0375 0
0.5875 0.0375 0
0.6 0.0375 0
0.6125 0.0375 0
0.625 0.0375 0
0.6375 0.0375 0
0.65 0.0375 0
0.6625 0.0375 0
0.675 0.0375 0
0.6875 0.0375 0
0.7 0.0375 0
0.7125 0.0375 0
0.725 0.0375 0
0.7375 0.0375 0
0.75 0.0375 0
0.7625 0.0375 0
0.775 0.0375 0
0.7875 0.0375 0
0.8 0.0375 0
0.8125 0.0375 0
0.825 0.0375 0
0.8375 0.0375 0
0.85 0.0375 0
0.8625 0.0375 0
0.875 0.0375 0
0.8875 0.0375 0
0.9 0.0375 0
0.9125 0.0375 0
0.925 0.0375 0
0.9375 0.0375 0
0.95 0.0375 0
0.9625 0.0375 0
0.975 0.0375 0
0.9875 0.0375 0
1 0.0375 0
0 0.05 0
0.0125 0.05 0
0.025 0.05 0
0.0375 0.05 0
0.05 0.05 0
0.0625 0.05 0
0.075 0.05 0
0.0875 0.05 0
0.1 0.05 0
0.1125 0.05 0
0.125 0.05 0
0.1375 0.05 0
0.15 0.05 0
0.1625 0.05 0
0.175 0.05 0
0.1875 0.05 0
0.2 0.05 0
0.2125 0.05 0
0.225 0.05 0
0.2375 0.05 0
0.25 0.05 0
0.2625 0.05 0
0.275 0.05 0
0.2875 0.05 0
0.3 0.05 0
0.3125 0.05 0
0.325 0.05 0
0.3375 0.05 0
0.35 0.05 0
0.3625 0.05 0
0.375 0.05 0
0.3875 0.05 0
0.4 0.05 0
0.4125 0.05 0
0.425 0.05 0
0.4375 0.05 0
0.45 0.05 0
0.4625 0.05 0
0.475 0.05 0
0.4875 0.05 0
0.5 0.05 0
0.5125 0.05 0
0.525 0.05 0
0.5375 0.05 0
0.55 0.05 0
0.5625 0.05 0
0.575 0.05 0
0.5875 0.05 0
0.6 0.05 0
0.6125 0.05 0
0.625 0.05 0
0.6375 0.05 0
0.65 0.05 0
0.6625 0.05 0
0.675 0.05 0
0.6875 0.05 0
0.7 0.05 0
0.7125 0.05 0
0.725 0.05 0
0.7375 0.05 0
0.75 0.05 0
0.7625 0.05 0
0.775 0.05 0
0.7875 0.05 0
0.8 0.05 0
0.8125 0.05 0
0.825 0.05 0
0.8375 0.05 0
0.85 0.05 0
0.8625 0.05 0
0.875 0.05 0
0.8875 0.05 0
0.9 0.05 0
0.9125 0.05 0
0.925 0.05 0
0.9375 0.05 0
0.95 0.05 0
0.9625 0.05 0
0.975 0.05 0
0.9875 0.05 0
1 0.05 0
0 0.0625 0
0.0125 0.0625 0
0.025 0.0625 0
0.0375 0.0625 0
0.05 0.0625 0
0.0625 0.0625 0
0.075 0.0625 0
0.0875 0.0625 0
0.1 0.0625 0
0.1125 0.0625 0
0.125 0.0625 0
0.1375 0.0625 0
0.15 0.0625 0
0.1625 0.0625 0
0.175 0.0625 0
0.1875 0.0625 0
0.2 0.0625 0
0.2125 0.0625 0
0.225 0.0625 0
0.2375 0.0625 0
0.25 0.0625 0
0.2625 0.0625 0
0.275 0.0625 0
0.2875 0.0625 0
0.3 0.0625 0
0.3125 0.0625 0
0.325 0.0625 0
0.3375 0.0625 0
0.35 0.0625 0
0.3625 0.0625 0
0.375 0.0625 0
0.3875 0.0625 0
0.4 0.0625 0
0.4125 0.0625 0
0.425 0.0625 0
0.4375 0.0625 0
0.45 0.0625 0
0.4625 0.0625 0
0.475 0.0625 0
0.4875 0.0625 0
0.5 0.0625 0
0.5125 0.0625 0
0.525 0.0625 0
0.5375 0.0625 0
0.55 0.0625 0
0.5625 0.0625 0
0.575 0.0625 0
0.5875 0.0625 0
0.6 0.0625 0
0.6125 0.0625 0
0.625 0.0625 0
0.6375 0.0625 0
0.65 0.0625 0
0.6625 0.0625 0
0.675 0.0625 0
0.6875 0.0625 0
0.7 0.0625 0
0.7125 0.0625 0
0.725 0.0625 0
0.7375 0.0625 0
0.75 0.0625 0
0.7625 0.0625 0
0.775 0.0625 0
0.7875 0.0625 0
0.8 0.0625 0
0.8125 0.0625 0
0.825 0.0625 0
0.8375 0.0625 0
0.85 0.0625 0
0.8625 0.0625 0
0.875 0.0625 0
0.8875 0.0625 0
0.9 0.0625 0
0.9125 0.0625 0
0.925 0.0625 0
0.9375 0.0625 0
0.95 0.0625 0
0.9625 0.0625 0
0.975 0.0625 0
0.9875 0.0625 0
1 0.0625 0
0 0.075 0
0.0125 0.075 0
0.025 0.075 0
0.0375 0.075 0
0.05 0.075 0
0.0625 0.075 0
0.075 0.075 0
0.0875 0.075 0
0.1 0.075 0
0.1125 0.075 0
0.125 0.075 0
0.1375 0.075 0
0.15 0.075 0
0.1625 0.075 0
0.175 0.075 0
0.1875 0.075 0
0.2 0.075 0
0.2125 0.075 0
0.225 0.075 0
0.2375 0.075 0
0.25 0.075 0
0.2625 0.075 0
0.275 0.075 0
0.2875 0.075 0
0.3 0.075 0
0.3125 0.075 0
0.325 0.075 0
0.3375 0.075 0
0.35 0.075 0
0.3625 0.075 0
0.375 0.075 0
0.3875 0.075 0
0.4 0.075 0
0.4125 0.075 0
0.425 0.075 0
0.4375 0.075 0
0.45 0.075 0
0.4625 0.075 0
0.475 0.075 0
0.4875 0.075 0
0.5 0.075 0
0.5125 0.075 0
0.525 0.075 0
0.5375 0.075 0
0.55 0.075 0
0.5625 0.075 0
0.575 0.075 0
0.5875 0.075 0
0.6 0.075 0
0.6125 0.075 0
0.625 0.075 0
0.6375 0.075 0
0.65 0.075 0
0.6625 0.075 0
0.675 0.075 0
0.6875 0.075 0
0.7 0.075 0
0.7125 0.075 0
0.725 0.075 0
0.7375 0.075 0
0.75 0.075 0
0.7625 0.075 0
0.775 0.075 0
0.7875 0.075 0
0.8 0.075 0
0.8125 0.075 0
0.825 0.075 0
0.8375 0.075 0
0.85 0.075 0
0.8625 0.075 0
0.875 0.075 0
0.8875 0.075 0
0.9 0.075 0
0.9125 0.075 0
0.925 0.075 0
0.9375 0.075 0
0.95 0.075 0
0.9625 0.075 0
0.975 0.075 0
0.9875 0.075 0
1 0.075 0
0 0.0875 0
0.0125 0.0875 0
0.025 0.0875 0
0.0375 0.0875 0
0.05 0.0875 0
0.0625 0.0875 0
0.075 0.0875 0
0.0875 0.0875 0
0.1 0.0875 0
0.1125 0.0875 0
0.125 0.0875 0
0.1375 0.0875 0
0.15 0.0875 0
0.1625 0.0875 0
0.175 0.0875 0
0.1875 0.0875 0
0.2 0.0875 0
0.2125 0.0875 0
0.225 0.0875 0
0.2375 0.0875 0
0.25 0.0875 0
0.2625 0.0875 0
0.275 0.0875 0
0.2875 0.0875 0
0.3 0.0875 0
0.3125 0.0875 0
0.325 0.0875 0
0.3375 0.0875 0
0.35 0.0875 0
0.3625 0.0875 0
0.375 0.0875 0
0.3875 0.0875 0
0.4 0.0875 0
0.4125 0.0875 0
0.425 0.0875 0
0.4375 0.0875 0
0.45 0.0875 0
0.4625 0.0875 0
0.475 0.0875 0
0.4875 0.0875 0
0.5 0.0875 0
0.5125 0.0875 0
0.525 0.0875 0
0.5375 0.0875 0
0.55 0.0875 0
0.5625 0.0875 0
0.575 0.0875 0
0.5875 0.0875 0
0.6 0.0875 0
0.6125 0.0875 0
0.625 0.0875 0
0.6375 0.0875 0
0.65 0.0875 0
0.6625 0.0875 0
0.675 0.0875 0
0.6875 0.0875 0
0.7 0.0875 0
0.7125 0.0875 0
0.725 0.0875 0
0.7375 0.0875 0
0.75 0.0875 0
0.7625 0.0875 0
0.775 0.0875 0
0.7875 0.0875 0
0.8 0.0875 0
0.8125 0.0875 0
0.825 0.0875 0
0.8375 0.0875 0
0.85 0.0875 0
0.8625 0.0875 0
0.875 0.0875 0
0.8875 0.0875 0
0.9 0.0875 0
0.9125 0.0875 0
0.925 0.0875 0
0.9375 0.0875 0
0.95 0.0875 0
0.9625 0.0875 0
0.975 0.0875 0
0.9875 0.0875 0
1 0.0875 0
0 0.1 0
0.0125 0.1 0
0.025 0.1 0
0.0375 0.1 0
0.05 0.1 0
0.0625 0.1 0
0.075 0.1 0
0.0875 0.1 0
0.1 0.1 0
0.1125 0.1 0
0.125 0.1 0
0.1375 0.1 0
0.15 0.1 0
0.1625 0.1 0
0.175 0.1 0
0.1875 0.1 0
0.2 0.1 0
0.2125 0.1 0
0.225 0.1 0
0.2375 0.1 0
0.25 0.1 0
0.2625 0.1 0
0.275 0.1 0
0.2875 0.1 0
0.3 0.1 0
0.3125 0.1 0
0.325 0.1 0
0.3375 0.1 0
0.35 0.1 0
0.3625 0.1 0
0.375 0.1 0
0.3875 0.1 0
0.4 0.1 0
0.4125 0.1 0
0.425 0.1 0
0.4375 0.1 0
0.45 0.1 0
0.4625 0.1 0
0.475 0.1 0
0.4875 0.1 0
0.5 0.1 0
0.5125 0.1 0
0.525 0.1 0
0.5375 0.1 0
0.55 0.1 0
0.5625 0.1 0
0.575 0.1 0
0.5875 0.1 0
0.6 0.1 0
0.6125 0.1 0
0.625 0.1 0
0.6375 0.1 0
0.65 0.1 0
0.6625 0.1 0
0.675 0.1 0
0.6875 0.1 0
0.7 0.1 0
0.7125 0.1 0
0.725 0.1 0
0.7375 0.1 0
0.75 0.1 0
0.7625 0.1 0
0.775 0.1 0
[...]
    <PointData>
      <DataArray type="Float64" NumberOfComponents="3" Name="Velocity" format="ascii">
0 0 0
0 0 0
0 0 0
0 0 0
0 0 0
0 0 0
0 0 0
0 0 0
0 0 0
0 0 0
0 0 0
0 0 0
0 0 0
0 0 0
0 0 0
0 0 0
0 0 0
0 0 0
0 0 0
0 0 0
0 0 0
0 0 0
0 0 0
0 0 0
0 0 0
0 0 0
0 0 0
0 0 0
0 0 0
0 0 0
0 0 0
0 0 0
0 0 0
0 0 0
0 0 0
0 0 0
0 0 0
0 0 0
0 0 0
0 0 0
0 0 0
0 0 0
0 0 0
0 0 0
0 0 0
0 0 0
0 0 0
0 0 0
0 0 0
0 0 0
0 0 0
0 0 0
0 0 0
0 0 0
0 0 0
0 0 0
0 0 0
0 0 0
0 0 0
0 0 0
0 0 0
0 0 0
0 0 0
0 0 0
0 0 0
0 0 0
0 0 0
0 0 0
0 0 0
0 0 0
0 0 0
0 0 0
0 0 0
0 0 0
0 0 0
0 0 0
0 0 0
0 0 0
0 0 0
0 0 0
0 0 0
0 0 0
4.05095e-05 -3.7686e-05 0
9.70221e-05 -5.1569e-05 0
0.000150666 -4.42215e-05 0
0.000182569 -1.82159e-05 0
0.000175921 1.74056e-05 0
0.000113912 5.36008e-05 0
5.50089e-07 9.45426e-05 0
-0.000160157 0.000144404 0
-0.00035921 0.000181049 0
-0.000587613 0.000182341 0
-0.000885437 0.000179729 0
-0.00129276 0.000204661 0
-0.00176804 0.000253354 0
-0.00226976 0.000322024 0
-0.00275732 0.000378377 0
-0.00319014 0.000390121 0
-0.00359858 0.000383673 0
-0.00401304 0.00038545 0
-0.00441757 0.00038681 0
-0.00479626 0.000379108 0
-0.00516082 0.000369651 0
-0.00552298 0.000365748 0
-0.00588069 0.00036274 0
-0.00623194 0.000355973 0
-0.0065753 0.000346336 0
-0.00690933 0.000334717 0
-0.00723131 0.000320912 0
-0.00753854 0.000304715 0
-0.00782907 0.000286389 0
-0.00810094 0.000266201 0
-0.00835237 0.00024433 0
-0.00858155 0.000220953 0
-0.00878716 0.000196237 0
-0.00896788 0.00017035 0
-0.00912269 0.000143467 0
-0.00925055 0.000115763 0
-0.00935082 8.74011e-05 0
-0.00942282 5.85412e-05 0
-0.00946622 2.93515e-05 0
-0.00948069 2.70165e-15 0
-0.00946622 -2.93515e-05 0
-0.00942282 -5.85412e-05 0
-0.00935082 -8.74011e-05 0
-0.00925055 -0.000115763 0
-0.00912269 -0.000143467 0
-0.00896788 -0.00017035 0
-0.00878716 -0.000196237 0
-0.00858155 -0.000220953 0
-0.00835237 -0.00024433 0
-0.00810094 -0.000266201 0
-0.00782907 -0.000286389 0
-0.00753854 -0.000304715 0
-0.00723131 -0.000320912 0
-0.00690933 -0.000334717 0
-0.0065753 -0.000346336 0
-0.00623194 -0.000355973 0
-0.00588069 -0.00036274 0
-0.00552298 -0.000365748 0
-0.00516082 -0.000369651 0
-0.00479626 -0.000379108 0
-0.00441757 -0.00038681 0
-0.00401304 -0.00038545 0
-0.00359858 -0.000383673 0
-0.00319014 -0.000390121 0
-0.00275732 -0.000378377 0
-0.00226976 -0.000322024 0
-0.00176804 -0.000253354 0
-0.00129276 -0.000204661 0
-0.000885437 -0.000179729 0
-0.000587613 -0.000182341 0
-0.00035921 -0.000181049 0
-0.000160157 -0.000144404 0
5.50089e-07 -9.45426e-05 0
0.000113912 -5.36008e-05 0
0.000175921 -1.74056e-05 0
0.000182569 1.82159e-05 0
0.000150666 4.42215e-05 0
9.70221e-05 5.1569e-05 0
4.05095e-05 3.7686e-05 0
0 0 0
0 0 0
5.06434e-05 -9.83075e-05 0
0.0001225 -0.000119927 0
0.000175568 -8.52058e-05 0
0.000169847 -1.44884e-05 0
9.73022e-05 8.10955e-05 0
-5.01021e-05 0.000190417 0
-0.000285261 0.000300209 0
-0.000621071 0.000397208 0
-0.00107178 0.000509783 0
-0.00165164 0.000666303 0
-0.00230361 0.000832776 0
-0.00297062 0.000975209 0
-0.00366848 0.00105552 0
-0.004413 0.00103561 0
-0.00521658 0.000974119 0
-0.00609165 0.000929684 0
-0.00696363 0.000885778 0
-0.00775794 0.00082587 0
-0.00850045 0.000769292 0
-0.00921703 0.000735373 0
-0.00991853 0.000716709 0
-0.0106158 0.000705898 0
-0.0113049 0.00069697 0
-0.0119816 0.000683954 0
-0.0126427 0.000666792 0
-0.0132849 0.000645425 0
-0.0139034 0.000619595 0
-0.0144931 0.000589044 0
-0.0150505 0.000554263 0
-0.0155719 0.000515744 0
-0.0160538 0.000473813 0
-0.0164931 0.000428796 0
-0.0168871 0.000381059 0
-0.0172334 0.000330967 0
-0.01753 0.000278863 0
-0.017775 0.00022509 0
-0.017967 0.000169982 0
-0.018105 0.000113875 0
-0.0181881 5.71022e-05 0
-0.0182158 -1.71316e-15 0
-0.0181881 -5.71022e-05 0
-0.018105 -0.000113875 0
-0.017967 -0.000169982 0
-0.017775 -0.00022509 0
-0.01753 -0.000278863 0
-0.0172334 -0.000330967 0
-0.0168871 -0.000381059 0
-0.0164931 -0.000428796 0
-0.0160538 -0.000473813 0
-0.0155719 -0.000515744 0
-0.0150505 -0.000554263 0
-0.0144931 -0.000589044 0
-0.0139034 -0.000619595 0
-0.0132849 -0.000645425 0
-0.0126427 -0.000666792 0
-0.0119816 -0.000683954 0
-0.0113049 -0.00069697 0
-0.0106158 -0.000705898 0
-0.00991853 -0.000716709 0
-0.00921703 -0.000735373 0
-0.00850045 -0.000769292 0
-0.00775794 -0.00082587 0
-0.00696363 -0.000885778 0
-0.00609165 -0.000929684 0
-0.00521658 -0.000974119 0
-0.004413 -0.00103561 0
-0.00366848 -0.00105552 0
-0.00297062 -0.000975209 0
-0.00230361 -0.000832776 0
-0.00165164 -0.000666303 0
-0.00107178 -0.000509783 0
-0.000621071 -0.000397208 0
-0.000285261 -0.000300209 0
-5.01021e-05 -0.000190417 0
9.73022e-05 -8.10955e-05 0
0.000169847 1.44884e-05 0
0.000175568 8.52058e-05 0
0.0001225 0.000119927 0
5.06434e-05 9.83075e-05 0
0 0 0
0 0 0
4.07716e-05 -0.000155309 0
9.03132e-05 -0.00017227 0
9.85245e-05 -8.87327e-05 0
1.53055e-05 5.74528e-05 0
-0.000163221 0.000246085 0
-0.000440931 0.000456963 0
-0.000838759 0.000671145 0
-0.00137764 0.000869691 0
-0.00206782 0.0010944 0
-0.00291958 0.00138709 0
-0.00384977 0.0016915 0
-0.00477525 0.00195139 0
-0.00574315 0.00210438 0
-0.0068006 0.00208805 0
-0.00794382 0.00198912 0
-0.00916904 0.00189433 0
-0.010377 0.00179216 0
-0.0114685 0.00167109 0
-0.0125005 0.00156778 0
-0.01353 0.00151885 0
-0.0145563 0.001498 0
-0.0155789 0.0014789 0
-0.0165909 0.0014574 0
-0.0175857 0.00142933 0
-0.0185572 0.00139313 0
-0.0194997 0.00134722 0
-0.0204062 0.00129185 0
-0.0212702 0.00122729 0
-0.0220862 0.0011543 0
-0.022849 0.00107363 0
-0.0235538 0.000985987 0
-0.024196 0.000892059 0
-0.0247719 0.000792578 0
-0.0252779 0.000688274 0
-0.0257113 0.000579844 0
-0.0260691 0.000467982 0
-0.0263497 0.000353378 0
-0.0265511 0.000236723 0
-0.0266725 0.000118702 0
-0.026713 -3.33749e-15 0
-0.0266725 -0.000118702 0
-0.0265511 -0.000236723 0
-0.0263497 -0.000353378 0
-0.0260691 -0.000467982 0
-0.0257113 -0.000579844 0
-0.0252779 -0.000688274 0
-0.0247719 -0.000792578 0
-0.024196 -0.000892059 0
-0.0235538 -0.000985987 0
-0.022849 -0.00107363 0
-0.0220862 -0.0011543 0
-0.0212702 -0.00122729 0
-0.0204062 -0.00129185 0
-0.0194997 -0.00134722 0
-0.0185572 -0.00139313 0
-0.0175857 -0.00142933 0
-0.0165909 -0.0014574 0
-0.0155789 -0.0014789 0
-0.0145563 -0.001498 0
-0.01353 -0.00151885 0
-0.0125005 -0.00156778 0
-0.0114685 -0.00167109 0
-0.010377 -0.00179216 0
-0.00916904 -0.00189433 0
-0.00794382 -0.00198912 0
-0.0068006 -0.00208805 0
-0.00574315 -0.00210438 0
-0.00477525 -0.00195139 0
-0.00384977 -0.0016915 0
-0.00291958 -0.00138709 0
-0.00206782 -0.0010944 0
-0.00137764 -0.000869691 0
-0.000838759 -0.000671145 0
-0.000440931 -0.000456963 0
-0.000163221 -0.000246085 0
1.53055e-05 -5.74528e-05 0
9.85245e-05 8.87327e-05 0
9.03132e-05 0.00017227 0
4.07716e-05 0.000155309 0
0 0 0
0 0 0
2.12644e-05 -0.000182137 0
1.43412e-05 -0.000175792 0
-5.66495e-05 -2.05818e-05 0
-0.000227587 0.000243878 0
-0.000533012 0.000567389 0
-0.00100746 0.000899754 0
-0.00164127 0.00126149 0
-0.00242475 0.00167313 0
-0.00327744 0.00204311 0
-0.0041189 0.00227989 0
-0.00511916 0.00248824 0
-0.00644829 0.00277296 0
-0.00803387 0.00309783 0
-0.00980346 0.00342663 0
-0.0115051 0.00362529 0
-0.0128868 0.0035597 0
-0.0141206 0.00338866 0
-0.0153786 0.00327095 0
-0.0166697 0.00320259 0
-0.0180028 0.00317961 0
-0.0193573 0.00317037 0
-0.0207124 0.00314321 0
-0.0220572 0.00309872 0
-0.0233811 0.00303749 0
-0.0246741 0.00295711 0
-0.0259265 0.00285519 0
-0.02713 0.00273349 0
-0.0282761 0.00259376 0
-0.0293579 0.00243716 0
-0.0303685 0.00226486 0
-0.0313017 0.00207839 0
-0.0321517 0.00187927 0
-0.0329136 0.00166891 0
-0.0335829 0.0014487 0
-0.0341558 0.00122006 0
-0.0346289 0.00098444 0
-0.0349997 0.000743223 0
-0.035266 0.00049781 0
-0.0354265 0.000249601 0
-0.03548 7.73562e-15 0
-0.0354265 -0.000249601 0
-0.035266 -0.00049781 0
-0.0349997 -0.000743223 0
-0.0346289 -0.00098444 0
-0.0341558 -0.00122006 0
-0.0335829 -0.0014487 0
-0.0329136 -0.00166891 0
-0.0321517 -0.00187927 0
-0.0313017 -0.00207839 0
-0.0303685 -0.00226486 0
-0.0293579 -0.00243716 0
-0.0282761 -0.00259376 0
-0.02713 -0.00273349 0
-0.0259265 -0.00285519 0
-0.0246741 -0.00295711 0
-0.0233811 -0.00303749 0
-0.0220572 -0.00309872 0
-0.0207124 -0.00314321 0
-0.0193573 -0.00317037 0
-0.0180028 -0.00317961 0
-0.0166697 -0.00320259 0
-0.0153786 -0.00327095 0
-0.0141206 -0.00338866 0
-0.0128868 -0.0035597 0
-0.0115051 -0.00362529 0
-0.00980346 -0.00342663 0
-0.00803387 -0.00309783 0
-0.00644829 -0.00277296 0
-0.00511916 -0.00248824 0
-0.0041189 -0.00227989 0
-0.00327744 -0.00204311 0
-0.00242475 -0.00167313 0
-0.00164127 -0.00126149 0
-0.00100746 -0.000899754 0
-0.000533012 -0.000567389 0
-0.000227587 -0.000243878 0
-5.66495e-05 2.05818e-05 0
1.43412e-05 0.000175792 0
2.12644e-05 0.000182137 0
0 0 0
0 0 0
-9.41406e-06 -0.000173023 0
-8.28492e-05 -0.000108147 0
-0.000251048 0.000148985 0
-0.000544752 0.000552732 0
-0.00100521 0.00103967 0
-0.00167365 0.00154639 0
-0.00253938 0.0020865 0
-0.00359165 0.00267361 0
-0.0046981 0.0031705 0
-0.00572635 0.00343995 0
-0.00693387 0.00370647 0
-0.00857814 0.00419457 0
-0.0105172 0.00474262 0
-0.0126092 0.005189 0
-0.0145213 0.00541568 0
-0.0159208 0.00530465 0
-0.0171533 0.00509652 0
-0.0185648 0.00503189 0
-0.020101 0.00504117 0
-0.0217076 0.00505477 0
-0.0233513 0.00505271 0
-0.0249986 0.00501498 0
-0.0266348 0.0049442 0
-0.0282453 0.00484298 0
-0.0298175 0.00470971 0
-0.0313386 0.00454283 0
-0.032799 0.0043453 0
-0.034189 0.00412012 0
-0.0355001 0.00386896 0
-0.0367242 0.00359349 0
-0.037854 0.00329613 0
-0.0388826 0.00297925 0
-0.0398044 0.00264497 0
-0.0406139 0.00229539 0
-0.0413067 0.00193274 0
-0.0418787 0.00155923 0
-0.0423269 0.00117704 0
-0.0426488 0.000788311 0
-0.0428427 0.000395238 0
-0.0429073 1.71316e-14 0
-0.0428427 -0.000395238 0
-0.0426488 -0.000788311 0
-0.0423269 -0.00117704 0
-0.0418787 -0.00155923 0
-0.0413067 -0.00193274 0
-0.0406139 -0.00229539 0
-0.0398044 -0.00264497 0
-0.0388826 -0.00297925 0
-0.037854 -0.00329613 0
-0.0367242 -0.00359349 0
-0.0355001 -0.00386896 0
-0.034189 -0.00412012 0
-0.032799 -0.0043453 0
-0.0313386 -0.00454283 0
-0.0298175 -0.00470971 0
-0.0282453 -0.00484298 0
-0.0266348 -0.0049442 0
-0.0249986 -0.00501498 0
-0.0233513 -0.00505271 0
-0.0217076 -0.00505477 0
-0.020101 -0.00504117 0
-0.0185648 -0.00503189 0
-0.0171533 -0.00509652 0
-0.0159208 -0.00530465 0
-0.0145213 -0.00541568 0
-0.0126092 -0.005189 0
-0.0105172 -0.00474262 0
-0.00857814 -0.00419457 0
-0.00693387 -0.00370647 0
-0.00572635 -0.00343995 0
-0.0046981 -0.0031705 0
-0.00359165 -0.00267361 0
-0.00253938 -0.0020865 0
-0.00167365 -0.00154639 0
-0.00100521 -0.00103967 0
-0.000544752 -0.000552732 0
-0.000251048 -0.000148985 0
-8.28492e-05 0.000108147 0
-9.41406e-06 0.000173023 0
0 0 0
0 0 0
-5.27996e-05 -0.000122202 0
-0.000178691 5.30105e-05 0
-0.000445764 0.000449707 0
-0.000922111 0.000991958 0
-0.00157294 0.0016576 0
-0.00236346 0.00242447 0
-0.00337967 0.0031614 0
-0.00470758 0.00373721 0
-0.00632724 0.00429116 0
-0.00821868 0.00496251 0
-0.010116 0.00582963 0
-0.0117532 0.00697089 0
-0.0131698 0.00774552 0
-0.0144055 0.00751277 0
-0.0156134 0.00689336 0
-0.0169467 0.00650803 0
-0.018434 0.00633696 0
-0.0201039 0.00636035 0
-0.0218876 0.00645094 0
-0.0237164 0.00648146 0
-0.0255678 0.00646392 0
-0.0274196 0.00641036 0
-0.0292546 0.00631707 0
-0.0310559 0.00618035 0
-0.0328114 0.00600195 0
-0.0345091 0.00578362 0
-0.0361378 0.00552808 0
-0.0376867 0.00523803 0
-0.039147 0.00491577 0
-0.0405097 0.00456359 0
-0.0417671 0.00418432 0
-0.0429114 0.00378082 0
-0.0439366 0.00335568 0
-0.0448367 0.00291152 0
-0.0456069 0.00245108 0
-0.0462427 0.00197712 0
-0.0467409 0.00149234 0
-0.0470985 0.000999405 0
-0.0473141 0.000501052 0
-0.0473859 1.04758e-14 0
-0.0473141 -0.000501052 0
-0.0470985 -0.000999405 0
-0.0467409 -0.00149234 0
-0.0462427 -0.00197712 0
-0.0456069 -0.00245108 0
-0.0448367 -0.00291152 0
-0.0439366 -0.00335568 0
-0.0429114 -0.00378082 0
-0.0417671 -0.00418432 0
-0.0405097 -0.00456359 0
-0.039147 -0.00491577 0
-0.0376867 -0.00523803 0
-0.0361378 -0.00552808 0
-0.0345091 -0.00578362 0
-0.0328114 -0.00600195 0
-0.0310559 -0.00618035 0
-0.0292546 -0.00631707 0
-0.0274196 -0.00641036 0
-0.0255678 -0.00646392 0
-0.0237164 -0.00648146 0
-0.0218876 -0.00645094 0
-0.0201039 -0.00636035 0
-0.018434 -0.00633696 0
-0.0169467 -0.00650803 0
-0.0156134 -0.00689336 0
-0.0144055 -0.00751277 0
-0.0131698 -0.00774552 0
-0.0117532 -0.00697089 0
-0.010116 -0.00582963 0
-0.00821868 -0.00496251 0
-0.00632724 -0.00429116 0
-0.00470758 -0.00373721 0
-0.00337967 -0.0031614 0
-0.00236346 -0.00242447 0
-0.00157294 -0.0016576 0
-0.000922111 -0.000991958 0
-0.000445764 -0.000449707 0
-0.000178691 -5.30105e-05 0
-5.27996e-05 0.000122202 0
0 0 0
0 0 0
-9.9873e-05 -2.05656e-05 0
-0.000284226 0.000300468 0
-0.000656604 0.000874929 0
-0.00132055 0.00161465 0
-0.00216896 0.00248855 0
-0.00309474 0.00346558 0
-0.00430567 0.00444945 0
-0.00600953 0.00534385 0
-0.0081129 0.00616874 0
-0.0105224 0.00694406 0
-0.0127251 0.00794454 0
-0.0142082 0.00944487 0
-0.0151075 0.0103419 0
-0.0155589 0.00953252 0
-0.0161733 0.00824611 0
-0.0175616 0.0077121 0
-0.0193982 0.0076447 0
-0.0213574 0.00775817 0
-0.023381 0.00790653 0
-0.0254109 0.00794381 0
-0.0274414 0.00790727 0
-0.0294668 0.00783416 0
-0.0314684 0.00771496 0
-0.0334275 0.00754012 0
-0.0353335 0.00731454 0
-0.0371759 0.0070431 0
-0.0389425 0.00672802 0
-0.0406213 0.00637155 0
-0.0422031 0.00597667 0
-0.0436787 0.0055464 0
-0.0450399 0.00508393 0
-0.0462783 0.00459247 0
-0.0473875 0.00407516 0
-0.0483611 0.00353513 0
-0.0491941 0.00297566 0
-0.0498816 0.0024 0
-0.0504203 0.00181136 0
-0.050807 0.00121298 0
-0.05104 0.000608108 0
-0.0511177 -7.6436e-16 0
-0.05104 -0.000608108 0
-0.050807 -0.00121298 0
-0.0504203 -0.00181136 0
-0.0498816 -0.0024 0
-0.0491941 -0.00297566 0
-0.0483611 -0.00353513 0
-0.0473875 -0.00407516 0
-0.0462783 -0.00459247 0
-0.0450399 -0.00508393 0
-0.0436787 -0.0055464 0
-0.0422031 -0.00597667 0
-0.0406213 -0.00637155 0
-0.0389425 -0.00672802 0
-0.0371759 -0.0070431 0
-0.0353335 -0.00731454 0
-0.0334275 -0.00754012 0
-0.0314684 -0.00771496 0
-0.0294668 -0.00783416 0
-0.0274414 -0.00790727 0
-0.0254109 -0.00794381 0
-0.023381 -0.00790653 0
-0.0213574 -0.00775817 0
-0.0193982 -0.0076447 0
-0.0175616 -0.0077121 0
-0.0161733 -0.00824611 0
-0.0155589 -0.00953252 0
-0.0151075 -0.0103419 0
-0.0142082 -0.00944487 0
-0.0127251 -0.00794454 0
-0.0105224 -0.00694406 0
-0.0081129 -0.00616874 0
-0.00600953 -0.00534385 0
-0.00430567 -0.00444945 0
-0.00309474 -0.00346558 0
-0.00216896 -0.00248855 0
-0.00132055 -0.00161465 0
-0.000656604 -0.000874929 0
-0.000284226 -0.000300468 0
-9.9873e-05 2.05656e-05 0
0 0 0
0 0 0
-0.000141615 0.000140992 0
-0.000410497 0.000627012 0
-0.000899369 0.001418 0
-0.00170095 0.00247388 0
-0.00272603 0.0035999 0
-0.00388539 0.00460131 0
-0.00546091 0.00591388 0
-0.00773447 0.00797344 0
-0.0100031 0.00956687 0
-0.0115639 0.00948109 0
-0.0128208 0.00913799 0
-0.014178 0.00995947 0
-0.0154462 0.0107672 0
-0.0164361 0.0103828 0
-0.017593 0.00966171 0
-0.0193625 0.00945911 0
-0.0214814 0.00955445 0
-0.0236869 0.00972715 0
-0.0259328 0.00988254 0
-0.0281731 0.00992598 0
-0.0304064 0.00988601 0
-0.0326317 0.0097912 0
-0.034828 0.00963548 0
-0.0369746 0.0094128 0
-0.0390611 0.00912821 0
-0.0410771 0.00878678 0
-0.0430094 0.00839133 0
-0.0448445 0.00794472 0
-0.0465729 0.00745074 0
-0.0481849 0.00691318 0
-0.0496715 0.00633588 0
-0.0510236 0.00572268 0
-0.0522343 0.00507751 0
-0.0532969 0.0044043 0
-0.054206 0.00370704 0
-0.0549561 0.00298973 0
-0.0555439 0.00225636 0
-0.0559658 0.00151093 0
-0.05622 0.000757474 0
-0.0563047 -5.12193e-15 0
-0.05622 -0.000757474 0
-0.0559658 -0.00151093 0
-0.0555439 -0.00225636 0
-0.0549561 -0.00298973 0
-0.054206 -0.00370704 0
-0.0532969 -0.0044043 0
-0.0522343 -0.00507751 0
-0.0510236 -0.00572268 0
-0.0496715 -0.00633588 0
-0.0481849 -0.00691318 0
-0.0465729 -0.00745074 0
-0.0448445 -0.00794472 0
-0.0430094 -0.00839133 0
-0.0410771 -0.00878678 0
-0.0390611 -0.00912821 0
-0.0369746 -0.0094128 0
-0.034828 -0.00963548 0
-0.0326317 -0.0097912 0
-0.0304064 -0.00988601 0
-0.0281731 -0.00992598 0
-0.0259328 -0.00988254 0
-0.0236869 -0.00972715 0
-0.0214814 -0.00955445 0
-0.0193625 -0.00945911 0
-0.017593 -0.00966171 0
-0.0164361 -0.0103828 0
-0.0154462 -0.0107672 0
-0.014178 -0.00995947 0
-0.0128208 -0.00913799 0
-0.0115639 -0.00948109 0
-0.0100031 -0.00956687 0
-0.00773447 -0.00797344 0
-0.00546091 -0.00591388 0
-0.00388539 -0.00460131 0
-0.00272603 -0.0035999 0
-0.00170095 -0.00247388 0
-0.000899369 -0.001418 0
-0.000410497 -0.000627012 0
-0.000141615 -0.000140992 0
0 0 0
0 0 0
-0.000171624 0.00035971 0
-0.000564991 0.00106818 0
-0.0011872 0.00209862 0
-0.00204534 0.00342423 0
-0.00319055 0.00483642 0
-0.00467394 0.00612662 0
-0.00661265 0.00785311 0
-0.00912384 0.0105742 0
-0.0111934 0.0124266 0
-0.0118072 0.0115471 0
-0.0122023 0.0100813 0
-0.0136158 0.010175 0
-0.0155426 0.0108674 0
-0.0174777 0.0111977 0
-0.0195139 0.0113765 0
-0.0217439 0.0116142 0
-0.0241035 0.0118634 0
-0.0265282 0.0120768 0
-0.0289843 0.012223 0
-0.031438 0.0122712 0
-0.0338845 0.0122306 0
-0.0363188 0.0121107 0
-0.0387193 0.0119116 0
-0.0410645 0.0116331 0
-0.0433427 0.0112797 0
-0.0455426 0.0108558 0
-0.04765 0.0103653 0
-0.0496509 0.00981208 0
-0.0515346 0.00920073 0
-0.0532909 0.00853598 0
-0.0549101 0.00782244 0
-0.0563825 0.00706478 0
-0.0577007 0.00626784 0
-0.0588574 0.00543651 0
-0.0598469 0.00457565 0
-0.0606633 0.00369012 0
-0.0613029 0.00278486 0
-0.0617619 0.0018648 0
-0.0620385 0.000934874 0
-0.0621307 -6.12917e-15 0
-0.0620385 -0.000934874 0
-0.0617619 -0.0018648 0
-0.0613029 -0.00278486 0
-0.0606633 -0.00369012 0
-0.0598469 -0.00457565 0
-0.0588574 -0.00543651 0
-0.0577007 -0.00626784 0
-0.0563825 -0.00706478 0
-0.0549101 -0.00782244 0
-0.0532909 -0.00853598 0
-0.0515346 -0.00920073 0
-0.0496509 -0.00981208 0
-0.04765 -0.0103653 0
-0.0455426 -0.0108558 0
-0.0433427 -0.0112797 0
-0.0410645 -0.0116331 0
-0.0387193 -0.0119116 0
-0.0363188 -0.0121107 0
-0.0338845 -0.0122306 0
-0.031438 -0.0122712 0
-0.0289843 -0.012223 0
-0.0265282 -0.0120768 0
-0.0241035 -0.0118634 0
-0.0217439 -0.0116142 0
-0.0195139 -0.0113765 0
-0.0174777 -0.0111977 0
-0.0155426 -0.0108674 0
-0.0136158 -0.010175 0
-0.0122023 -0.0100813 0
-0.0118072 -0.0115471 0
-0.0111934 -0.0124266 0
-0.00912384 -0.0105742 0
-0.00661265 -0.00785311 0
-0.00467394 -0.00612662 0
-0.00319055 -0.00483642 0
-0.00204534 -0.00342423 0
-0.0011872 -0.00209862 0
-0.000564991 -0.00106818 0
-0.000171624 -0.00035971 0
0 0 0
0 0 0
-0.000183499 0.000632828 0
-0.000755195 0.00165951 0
-0.00153323 0.00293651 0
-0.00233575 0.00432025 0
-0.00350893 0.00604287 0
-0.00539892 0.00833648 0
-0.00752817 0.0105655 0
-0.00941908 0.0120944 0
-0.0108793 0.0126891 0
-0.0117163 0.0121155 0
-0.0126686 0.0114457 0
-0.0144746 0.0117517 0
-0.0167535 0.0124886 0
-0.0191245 0.0131112 0
-0.0215771 0.0136269 0
-0.0241005 0.0140426 0
-0.026684 0.014369 0
-0.0293169 0.0146165 0
-0.0319766 0.0147721 0
-0.0346408 0.0148226 0
-0.037297 0.0147715 0
-0.0399327 0.0146221 0
-0.0425283 0.0143762 0
-0.0450643 0.0140357 0
-0.0475269 0.0136057 0
-0.0499023 0.0130914 0
-0.0521763 0.0124974 0
-0.0543347 0.0118281 0
-0.0563662 0.0110894 0
-0.0582593 0.0102868 0
-0.060004 0.00942586 0
-0.0615902 0.00851206 0
-0.0630101 0.00755124 0
-0.0642557 0.00654924 0
-0.065321 0.00551188 0
-0.0661999 0.00444497 0
-0.0668885 0.00335442 0
-0.0673826 0.00224614 0
-0.0676803 0.00112604 0
-0.0677795 -7.31861e-15 0
-0.0676803 -0.00112604 0
-0.0673826 -0.00224614 0
-0.0668885 -0.00335442 0
-0.0661999 -0.00444497 0
-0.065321 -0.00551188 0
-0.0642557 -0.00654924 0
-0.0630101 -0.00755124 0
-0.0615902 -0.00851206 0
-0.060004 -0.00942586 0
-0.0582593 -0.0102868 0
-0.0563662 -0.0110894 0
-0.0543347 -0.0118281 0
-0.0521763 -0.0124974 0
-0.0499023 -0.0130914 0
-0.0475269 -0.0136057 0
-0.0450643 -0.0140357 0
-0.0425283 -0.0143762 0
-0.0399327 -0.0146221 0
-0.037297 -0.0147715 0
-0.0346408 -0.0148226 0
-0.0319766 -0.0147721 0
-0.0293169 -0.0146165 0
-0.026684 -0.014369 0