<?xml version="1.0"?>
<VTKFile type="UnstructuredGrid">
  <UnstructuredGrid>
  <Piece NumberOfPoints="961"  NumberOfCells="225">
    <Points>
      <DataArray type="Float64" NumberOfComponents="3" format="ascii">
0 0 0
0.0333333 0 0
0.0666667 0 0
0.1 0 0
0.133333 0 0
0.166667 0 0
0.2 0 0
0.233333 0 0
0.266667 0 0
0.3 0 0
0.333333 0 0
0.366667 0 0
0.4 0 0
0.433333 0 0
0.466667 0 0
0.5 0 0
0.533333 0 0
0.566667 0 0
0.6 0 0
0.633333 0 0
0.666667 0 0
0.7 0 0
0.733333 0 0
0.766667 0 0
0.8 0 0
0.833333 0 0
0.866667 0 0
0.9 0 0
0.933333 0 0
0.966667 0 0
1 0 0
0 0.0333333 0
0.0333333 0.0333333 0
0.0666667 0.0333333 0
0.1 0.0333333 0
0.133333 0.0333333 0
0.166667 0.0333333 0
0.2 0.0333333 0
0.233333 0.0333333 0
0.266667 0.0333333 0
0.3 0.0333333 0
0.333333 0.0333333 0
0.366667 0.0333333 0
0.4 0.0333333 0
0.433333 0.0333333 0
0.466667 0.0333333 0
0.5 0.0333333 0
0.533333 0.0333333 0
0.566667 0.0333333 0
0.6 0.0333333 0
0.633333 0.0333333 0
0.666667 0.0333333 0
0.7 0.0333333 0
0.733333 0.0333333 0
0.766667 0.0333333 0
0.8 0.0333333 0
0.833333 0.0333333 0
0.866667 0.0333333 0
0.9 0.0333333 0
0.933333 0.0333333 0
0.966667 0.0333333 0
1 0.0333333 0
0 0.0666667 0
0.0333333 0.0666667 0
0.0666667 0.0666667 0
0.1 0.0666667 0
0.133333 0.0666667 0
0.166667 0.0666667 0
0.2 0.0666667 0
0.233333 0.0666667 0
0.266667 0.0666667 0
0.3 0.0666667 0
0.333333 0.0666667 0
0.366667 0.0666667 0
0.4 0.0666667 0
0.433333 0.0666667 0
0.466667 0.0666667 0
0.5 0.0666667 0
0.533333 0.0666667 0
0.566667 0.0666667 0
0.6 0.0666667 0
0.633333 0.0666667 0
0.666667 0.0666667 0
0.7 0.0666667 0
0.733333 0.0666667 0
0.766667 0.0666667 0
0.8 0.0666667 0
0.833333 0.0666667 0
0.866667 0.0666667 0
0.9 0.0666667 0
0.933333 0.0666667 0
0.966667 0.0666667 0
1 0.0666667 0
0 0.1 0
0.0333333 0.1 0
0.0666667 0.1 0
0.1 0.1 0
0.133333 0.1 0
0.166667 0.1 0
0.2 0.1 0
0.233333 0.1 0
0.266667 0.1 0
0.3 0.1 0
0.333333 0.1 0
0.366667 0.1 0
0.4 0.1 0
0.433333 0.1 0
0.466667 0.1 0
0.5 0.1 0
0.533333 0.1 0
0.566667 0.1 0
0.6 0.1 0
0.633333 0.1 0
0.666667 0.1 0
0.7 0.1 0
0.733333 0.1 0
0.766667 0.1 0
0.8 0.1 0
0.833333 0.1 0
0.866667 0.1 0
0.9 0.1 0
0.933333 0.1 0
0.966667 0.1 0
1 0.1 0
0 0.133333 0
0.0333333 0.133333 0
0.0666667 0.133333 0
0.1 0.133333 0
0.133333 0.133333 0
0.166667 0.133333 0
0.2 0.133333 0
0.233333 0.133333 0
0.266667 0.133333 0
0.3 0.133333 0
0.333333 0.133333 0
0.366667 0.133333 0
0.4 0.133333 0
0.433333 0.133333 0
0.466667 0.133333 0
0.5 0.133333 0
0.533333 0.133333 0
0.566667 0.133333 0
0.6 0.133333 0
0.633333 0.133333 0
0.666667 0.133333 0
0.7 0.133333 0
0.733333 0.133333 0
0.766667 0.133333 0
0.8 0.133333 0
0.833333 0.133333 0
0.866667 0.133333 0
0.9 0.133333 0
0.933333 0.133333 0
0.966667 0.133333 0
1 0.133333 0
0 0.166667 0
0.0333333 0.166667 0
0.0666667 0.166667 0
0.1 0.166667 0
0.133333 0.166667 0
0.166667 0.166667 0
0.2 0.166667 0
0.233333 0.166667 0
0.266667 0.166667 0
0.3 0.166667 0
0.333333 0.166667 0
0.366667 0.166667 0
0.4 0.166667 0
0.433333 0.166667 0
0.466667 0.166667 0
0.5 0.166667 0
0.533333 0.166667 0
0.566667 0.166667 0
0.6 0.166667 0
0.633333 0.166667 0
0.666667 0.166667 0
0.7 0.166667 0
0.733333 0.166667 0
0.766667 0.166667 0
0.8 0.166667 0
0.833333 0.166667 0
0.866667 0.166667 0
0.9 0.166667 0
0.933333 0.166667 0
0.966667 0.166667 0
1 0.166667 0
0 0.2 0
0.0333333 0.2 0
0.0666667 0.2 0
0.1 0.2 0
0.133333 0.2 0
0.166667 0.2 0
0.2 0.2 0
0.233333 0.2 0
0.266667 0.2 0
0.3 0.2 0
0.333333 0.2 0
0.366667 0.2 0
0.4 0.2 0
0.433333 0.2 0
0.466667 0.2 0
0.5 0.2 0
0.533333 0.2 0
0.566667 0.2 0
0.6 0.2 0
0.633333 0.2 0
0.666667 0.2 0
0.7 0.2 0
0.733333 0.2 0
0.766667 0.2 0
0.8 0.2 0
0.833333 0.2 0
0.866667 0.2 0
0.9 0.2 0
0.933333 0.2 0
0.966667 0.2 0
1 0.2 0
0 0.233333 0
0.0333333 0.233333 0
0.0666667 0.233333 0
0.1 0.233333 0
0.133333 0.233333 0
0.166667 0.233333 0
0.2 0.233333 0
0.233333 0.233333 0
0.266667 0.233333 0
0.3 0.233333 0
0.333333 0.233333 0
0.366667 0.233333 0
0.4 0.233333 0
0.433333 0.233333 0
0.466667 0.233333 0
0.5 0.233333 0
0.533333 0.233333 0
0.566667 0.233333 0
0.6 0.233333 0
0.633333 0.233333 0
0.666667 0.233333 0
0.7 0.233333 0
0.733333 0.233333 0
0.766667 0.233333 0
0.8 0.233333 0
0.833333 0.233333 0
0.866667 0.233333 0
0.9 0.233333 0
0.933333 0.233333 0
0.966667 0.233333 0
1 0.233333 0
0 0.266667 0
0.0333333 0.266667 0
0.0666667 0.266667 0
0.1 0.266667 0
0.133333 0.266667 0
0.166667 0.266667 0
0.2 0.266667 0
0.233333 0.266667 0
0.266667 0.266667 0
0.3 0.266667 0
0.333333 0.266667 0
0.366667 0.266667 0
0.4 0.266667 0
0.433333 0.266667 0
0.466667 0.266667 0
0.5 0.266667 0
0.533333 0.266667 0
0.566667 0.266667 0
0.6 0.266667 0
0.633333 0.266667 0
0.666667 0.266667 0
0.7 0.266667 0
0.733333 0.266667 0
0.766667 0.266667 0
0.8 0.266667 0
0.833333 0.266667 0
0.866667 0.266667 0
0.9 0.266667 0
0.933333 0.266667 0
0.966667 0.266667 0
1 0.266667 0
0 0.3 0
0.0333333 0.3 0
0.0666667 0.3 0
0.1 0.3 0
0.133333 0.3 0
0.166667 0.3 0
0.2 0.3 0
0.233333 0.3 0
0.266667 0.3 0
0.3 0.3 0
0.333333 0.3 0
0.366667 0.3 0
0.4 0.3 0
0.433333 0.3 0
0.466667 0.3 0
0.5 0.3 0
0.533333 0.3 0
0.566667 0.3 0
0.6 0.3 0
0.633333 0.3 0
0.666667 0.3 0
0.7 0.3 0
0.733333 0.3 0
0.766667 0.3 0
0.8 0.3 0
0.833333 0.3 0
0.866667 0.3 0
0.9 0.3 0
0.933333 0.3 0
0.966667 0.3 0
1 0.3 0
0 0.333333 0
0.0333333 0.333333 0
0.0666667 0.333333 0
0.1 0.333333 0
0.133333 0.333333 0
0.166667 0.333333 0
0.2 0.333333 0
0.233333 0.333333 0
0.266667 0.333333 0
0.3 0.333333 0
0.333333 0.333333 0
0.366667 0.333333 0
0.4 0.333333 0
0.433333 0.333333 0
0.466667 0.333333 0
0.5 0.333333 0
0.533333 0.333333 0
0.566667 0.333333 0
0.6 0.333333 0
0.633333 0.333333 0
0.666667 0.333333 0
0.7 0.333333 0
0.733333 0.333333 0
0.766667 0.333333 0
0.8 0.333333 0
0.833333 0.333333 0
0.866667 0.333333 0
0.9 0.333333 0
0.933333 0.333333 0
0.966667 0.333333 0
1 0.333333 0
0 0.366667 0
0.0333333 0.366667 0
0.0666667 0.366667 0
0.1 0.366667 0
0.133333 0.366667 0
0.166667 0.366667 0
0.2 0.366667 0
0.233333 0.366667 0
0.266667 0.366667 0
0.3 0.366667 0
0.333333 0.366667 0
0.366667 0.366667 0
0.4 0.366667 0
0.433333 0.366667 0
0.466667 0.366667 0
0.5 0.366667 0
0.533333 0.366667 0
0.566667 0.366667 0
0.6 0.366667 0
0.633333 0.366667 0
0.666667 0.366667 0
0.7 0.366667 0
0.733333 0.366667 0
0.766667 0.366667 0
0.8 0.366667 0
0.833333 0.366667 0
0.866667 0.366667 0
0.9 0.366667 0
0.933333 0.366667 0
0.966667 0.366667 0
1 0.366667 0
0 0.4 0
0.0333333 0.4 0
0.0666667 0.4 0
0.1 0.4 0
0.133333 0.4 0
0.166667 0.4 0
0.2 0.4 0
0.233333 0.4 0
0.266667 0.4 0
0.3 0.4 0
0.333333 0.4 0
0.366667 0.4 0
0.4 0.4 0
0.433333 0.4 0
0.466667 0.4 0
0.5 0.4 0
0.533333 0.4 0
0.566667 0.4 0
0.6 0.4 0
0.633333 0.4 0
0.666667 0.4 0
0.7 0.4 0
0.733333 0.4 0
0.766667 0.4 0
0.8 0.4 0
0.833333 0.4 0
0.866667 0.4 0
0.9 0.4 0
0.933333 0.4 0
0.966667 0.4 0
1 0.4 0
0 0.433333 0
0.0333333 0.433333 0
0.0666667 0.433333 0
0.1 0.433333 0
0.133333 0.433333 0
0.166667 0.433333 0
0.2 0.433333 0
0.233333 0.433333 0
0.266667 0.433333 0
0.3 0.433333 0
0.333333 0.433333 0
0.366667 0.433333 0
0.4 0.433333 0
0.433333 0.433333 0
0.466667 0.433333 0
0.5 0.433333 0
0.533333 0.433333 0
0.566667 0.433333 0
0.6 0.433333 0
0.633333 0.433333 0
0.666667 0.433333 0
0.7 0.433333 0
0.733333 0.433333 0
0.766667 0.433333 0
0.8 0.433333 0
0.833333 0.433333 0
0.866667 0.433333 0
0.9 0.433333 0
0.933333 0.433333 0
0.966667 0.433333 0
1 0.433333 0
0 0.466667 0
0.0333333 0.466667 0
0.0666667 0.466667 0
0.1 0.466667 0
0.133333 0.466667 0
0.166667 0.466667 0
0.2 0.466667 0
0.233333 0.466667 0
0.266667 0.466667 0
0.3 0.466667 0
0.333333 0.466667 0
0.366667 0.466667 0
0.4 0.466667 0
0.433333 0.466667 0
0.466667 0.466667 0
0.5 0.466667 0
0.533333 0.466667 0
0.566667 0.466667 0
0.6 0.466667 0
0.633333 0.466667 0
0.666667 0.466667 0
0.7 0.466667 0
0.733333 0.466667 0
0.766667 0.466667 0
0.8 0.466667 0
0.833333 0.466667 0
0.866667 0.466667 0
0.9 0.466667 0
0.933333 0.466667 0
0.966667 0.466667 0
1 0.466667 0
0 0.5 0
0.0333333 0.5 0
0.0666667 0.5 0
0.1 0.5 0
0.133333 0.5 0
0.166667 0.5 0
0.2 0.5 0
0.233333 0.5 0
0.266667 0.5 0
0.3 0.5 0
0.333333 0.5 0
0.366667 0.5 0
0.4 0.5 0
0.433333 0.5 0
0.466667 0.5 0
0.5 0.5 0
0.533333 0.5 0
0.566667 0.5 0
0.6 0.5 0
0.633333 0.5 0
0.666667 0.5 0
0.7 0.5 0
0.733333 0.5 0
0.766667 0.5 0
0.8 0.5 0
0.833333 0.5 0
0.866667 0.5 0
0.9 0.5 0
0.933333 0.5 0
0.966667 0.5 0
1 0.5 0
0 0.533333 0
0.0333333 0.533333 0
0.0666667 0.533333 0
0.1 0.533333 0
0.133333 0.533333 0
0.166667 0.533333 0
0.2 0.533333 0
0.233333 0.533333 0
0.266667 0.533333 0
0.3 0.533333 0
0.333333 0.533333 0
0.366667 0.533333 0
0.4 0.533333 0
0.433333 0.533333 0
0.466667 0.533333 0
0.5 0.533333 0
0.533333 0.533333 0
0.566667 0.533333 0
0.6 0.533333 0
0.633333 0.533333 0
0.666667 0.533333 0
0.7 0.533333 0
0.733333 0.533333 0
0.766667 0.533333 0
0.8 0.533333 0
0.833333 0.533333 0
0.866667 0.533333 0
0.9 0.533333 0
0.933333 0.533333 0
0.966667 0.533333 0
1 0.533333 0
0 0.566667 0
0.0333333 0.566667 0
0.0666667 0.566667 0
0.1 0.566667 0
0.133333 0.566667 0
0.166667 0.566667 0
0.2 0.566667 0
0.233333 0.566667 0
0.266667 0.566667 0
0.3 0.566667 0
0.333333 0.566667 0
0.366667 0.566667 0
0.4 0.566667 0
0.433333 0.566667 0
0.466667 0.566667 0
0.5 0.566667 0
0.533333 0.566667 0
0.566667 0.566667 0
0.6 0.566667 0
0.633333 0.566667 0
0.666667 0.566667 0
0.7 0.566667 0
0.733333 0.566667 0
0.766667 0.566667 0
0.8 0.566667 0
0.833333 0.566667 0
0.866667 0.566667 0
0.9 0.566667 0
0.933333 0.566667 0
0.966667 0.566667 0
1 0.566667 0
0 0.6 0
0.0333333 0.6 0
0.0666667 0.6 0
0.1 0.6 0
0.133333 0.6 0
0.166667 0.6 0
0.2 0.6 0
0.233333 0.6 0
0.266667 0.6 0
0.3 0.6 0
0.333333 0.6 0
0.366667 0.6 0
0.4 0.6 0
0.433333 0.6 0
0.466667 0.6 0
0.5 0.6 0
0.533333 0.6 0
0.566667 0.6 0
0.6 0.6 0
0.633333 0.6 0
0.666667 0.6 0
0.7 0.6 0
0.733333 0.6 0
0.766667 0.6 0
0.8 0.6 0
0.833333 0.6 0
0.866667 0.6 0
0.9 0.6 0
0.933333 0.6 0
0.966667 0.6 0
1 0.6 0
0 0.633333 0
0.0333333 0.633333 0
0.0666667 0.633333 0
0.1 0.633333 0
0.133333 0.633333 0
0.166667 0.633333 0
0.2 0.633333 0
0.233333 0.633333 0
0.266667 0.633333 0
[...]
    <PointData>
      <DataArray type="Float64" NumberOfComponents="3" Name="Velocity" format="ascii">
0 0 0
0 0 0
0 0 0
0 0 0
0 0 0
0 0 0
0 0 0
0 0 0
0 0 0
0 0 0
0 0 0
0 0 0
0 0 0
0 0 0
0 0 0
0 0 0
0 0 0
0 0 0
0 0 0
0 0 0
0 0 0
0 0 0
0 0 0
0 0 0
0 0 0
0 0 0
0 0 0
0 0 0
0 0 0
0 0 0
0 0 0
0 0 0
-0.00547048 -0.00726244 0
-0.00355602 -0.00450933 0
-0.00350869 -0.00630495 0
-0.0145806 -0.0272136 0
-0.0251264 -0.0432388 0
-0.023501 -0.0303841 0
-0.0173204 -0.0112842 0
-0.0142008 -0.00857365 0
-0.0134487 -0.011498 0
-0.0143705 -0.00930305 0
-0.0157643 -0.00556814 0
-0.0164278 -0.00387277 0
-0.0168302 -0.00291996 0
-0.0174405 -0.00141273 0
-0.0177498 0.000376683 0
-0.0172488 0.00217602 0
-0.0165187 0.00360982 0
-0.0161407 0.00430262 0
-0.0153753 0.00575345 0
-0.0134831 0.00946132 0
-0.0121564 0.0114586 0
-0.0130873 0.00777781 0
-0.016371 0.00994859 0
-0.0221023 0.0295008 0
-0.0240527 0.0437038 0
-0.0159934 0.0298271 0
-0.00633741 0.00961407 0
-0.0034974 0.00480821 0
-0.00290705 0.00505501 0
0 0 0
0 0 0
-0.00410336 -0.00560666 0
-0.0146945 -0.0121828 0
-0.0249227 -0.0199516 0
-0.0279376 -0.0291359 0
-0.0267488 -0.0317067 0
-0.024366 -0.019635 0
-0.0222613 -0.00602408 0
-0.0219065 -0.00397709 0
-0.0230045 -0.00603763 0
-0.0252583 -0.00474929 0
-0.0276581 -0.00247728 0
-0.0291944 -0.00158683 0
-0.030247 -0.0012301 0
-0.0311955 -0.000559294 0
-0.0316144 0.000273514 0
-0.0310781 0.00111624 0
-0.0300589 0.00173375 0
-0.0290291 0.00189095 0
-0.0274127 0.00258443 0
-0.0246336 0.0048108 0
-0.0220604 0.00598925 0
-0.0210616 0.00353901 0
-0.0213805 0.00526895 0
-0.0227603 0.0189879 0
-0.0245316 0.0312416 0
-0.026025 0.0285758 0
-0.0238863 0.0193933 0
-0.0147615 0.0120971 0
-0.00476212 0.00589634 0
0 0 0
0 0 0
-0.0106228 -0.00384121 0
-0.0300387 -0.0175894 0
-0.042716 -0.0266569 0
-0.0331228 -0.0164561 0
-0.0189209 -0.00124626 0
-0.0177722 0.00471314 0
-0.0226396 0.00563833 0
-0.026486 0.00574549 0
-0.0298526 0.00532542 0
-0.0332807 0.00466891 0
-0.0363672 0.00387713 0
-0.0387087 0.00305125 0
-0.0403957 0.00214361 0
-0.0415182 0.00110657 0
-0.041944 8.3814e-06 0
-0.0415409 -0.00108271 0
-0.0404344 -0.00212483 0
-0.0387499 -0.00307613 0
-0.0363866 -0.00394821 0
-0.0332436 -0.00475266 0
-0.0297246 -0.00535132 0
-0.0262331 -0.00560601 0
-0.0220952 -0.0054261 0
-0.0166366 -0.00472095 0
-0.0163926 -3.74404e-05 0
-0.0278982 0.0120775 0
-0.0370778 0.0211267 0
-0.0298556 0.0166127 0
-0.0146802 0.00681172 0
0 0 0
0 0 0
-0.0397529 -0.0107747 0
-0.0462122 -0.0152978 0
-0.0353623 -0.0121379 0
-0.0231875 0.000136605 0
-0.0156961 0.0122999 0
-0.0188964 0.0151261 0
-0.0262725 0.0135609 0
-0.0313083 0.0125499 0
-0.0351779 0.0115353 0
-0.0390554 0.00995916 0
-0.0425772 0.00809967 0
-0.0453796 0.00623486 0
-0.0474215 0.00427519 0
-0.0486619 0.00213113 0
-0.0490887 -0.000100825 0
-0.0486901 -0.00232415 0
-0.0474588 -0.00446256 0
-0.0453876 -0.00643977 0
-0.0425715 -0.00828566 0
-0.0391056 -0.0100301 0
-0.0351618 -0.0115062 0
-0.0309124 -0.0125469 0
-0.0255817 -0.0135237 0
-0.0183941 -0.0148082 0
-0.0145917 -0.0127844 0
-0.0194168 -0.00383622 0
-0.0303428 0.00660317 0
-0.0448432 0.0131007 0
-0.0417762 0.0120889 0
0 0 0
0 0 0
-0.0617222 -0.0165359 0
-0.0525476 -0.00847904 0
-0.019829 0.00743629 0
-0.0109191 0.0144757 0
-0.0155167 0.0167195 0
-0.0233206 0.0182481 0
-0.0312602 0.0185642 0
-0.0362652 0.017171 0
-0.0399941 0.0150314 0
-0.0441058 0.0131088 0
-0.0480009 0.0110631 0
-0.0510803 0.00855433 0
-0.0533125 0.00576027 0
-0.0546658 0.00285871 0
-0.0551214 -9.42803e-05 0
-0.0546604 -0.00304267 0
-0.0532906 -0.00595227 0
-0.0510196 -0.00878888 0
-0.0479192 -0.0112773 0
-0.0440612 -0.0131422 0
-0.0398337 -0.0150114 0
-0.0356252 -0.0175125 0
-0.0304418 -0.019043 0
-0.0232895 -0.0180002 0
-0.015901 -0.0163454 0
-0.0100089 -0.0160397 0
-0.017466 -0.0108182 0
-0.0501254 0.00558433 0
-0.0602242 0.0151847 0
0 0 0
0 0 0
-0.0467591 -0.011254 0
-0.0383776 -0.000304043 0
-0.0130836 0.0158966 0
-0.00910491 0.0203948 0
-0.0168248 0.0198003 0
-0.0266265 0.020723 0
-0.0357032 0.0214688 0
-0.0412483 0.0203435 0
-0.0453146 0.0182534 0
-0.0499551 0.0161052 0
-0.0543513 0.0136403 0
-0.0576845 0.0106 0
-0.0600565 0.00719444 0
-0.0615692 0.00363366 0
-0.062115 -1.21589e-05 0
-0.0615867 -0.00367284 0
-0.0600882 -0.00726679 0
-0.0577233 -0.0107124 0
-0.0543815 -0.0137724 0
-0.0499522 -0.0162094 0
-0.045202 -0.0184028 0
-0.0408974 -0.0207318 0
-0.0352771 -0.0220031 0
-0.02658 -0.0210233 0
-0.0170929 -0.0200666 0
-0.0091027 -0.0214072 0
-0.012232 -0.0177783 0
-0.0361031 -0.00191357 0
-0.0441984 0.00955617 0
0 0 0
0 0 0
-0.0243521 -0.00119386 0
-0.0221595 0.00845235 0
-0.0119465 0.0197809 0
-0.0122377 0.023634 0
-0.0193984 0.0239876 0
-0.0297942 0.0248176 0
-0.0398684 0.0252343 0
-0.0460642 0.0243484 0
-0.0506218 0.0224745 0
-0.0557817 0.0199278 0
-0.0606069 0.0167656 0
-0.0641606 0.0130454 0
-0.0666592 0.00892668 0
-0.0683194 0.00456863 0
-0.0689574 7.5257e-05 0
-0.0683893 -0.00444948 0
-0.0667962 -0.00886488 0
-0.0643594 -0.0130302 0
-0.0608198 -0.016828 0
-0.0559187 -0.0201406 0
-0.0506852 -0.0228197 0
-0.0461486 -0.024717 0
-0.0399327 -0.0257117 0
-0.0296614 -0.0256831 0
-0.0191514 -0.0251767 0
-0.0122195 -0.0247377 0
-0.0116722 -0.020774 0
-0.020316 -0.00969331 0
-0.0218567 4.96144e-05 0
0 0 0
0 0 0
-0.0239899 0.00737943 0
-0.0223505 0.0170153 0
-0.0132384 0.0256269 0
-0.0148101 0.0299336 0
-0.0230153 0.0317268 0
-0.0338039 0.0327981 0
-0.0440228 0.0328204 0
-0.0505193 0.0314667 0
-0.055398 0.0289681 0
-0.0607634 0.025556 0
-0.0657463 0.0213736 0
-0.0694772 0.0165643 0
-0.0721264 0.011306 0
-0.0738642 0.00577628 0
-0.0745362 9.76854e-05 0
-0.0739885 -0.00560742 0
-0.0723597 -0.0112053 0
-0.0697887 -0.0165623 0
-0.0660956 -0.0215011 0
-0.0611005 -0.0258445 0
-0.0557021 -0.0294013 0
-0.0507988 -0.0319803 0
-0.0442537 -0.0334765 0
-0.0339298 -0.0337851 0
-0.0230608 -0.0329039 0
-0.0148807 -0.0308305 0
-0.0128185 -0.0263019 0
-0.0203036 -0.0180552 0
-0.0213571 -0.00848854 0
0 0 0
0 0 0
-0.0310033 0.0141466 0
-0.0280657 0.0247796 0
-0.0153465 0.0324734 0
-0.0170052 0.0378025 0
-0.0266141 0.0410092 0
-0.0377456 0.0423358 0
-0.0479126 0.0418928 0
-0.0546281 0.0397903 0
-0.0597927 0.036348 0
-0.065307 0.0318853 0
-0.0704033 0.0265551 0
-0.0743139 0.0205099 0
-0.0771301 0.013962 0
-0.0789431 0.00712339 0
-0.0796476 0.000128068 0
-0.0791382 -0.00688995 0
-0.0774918 -0.0138128 0
-0.0747851 -0.0205225 0
-0.0709531 -0.0267496 0
-0.0659309 -0.0322247 0
-0.0604142 -0.0368436 0
-0.0550982 -0.0405023 0
-0.0482801 -0.0427937 0
-0.0382567 -0.0433107 0
-0.0271751 -0.0419295 0
-0.0171821 -0.0385264 0
-0.014573 -0.0331508 0
-0.0256431 -0.0258521 0
-0.0281871 -0.0152589 0
0 0 0
0 0 0
-0.0307236 0.0187882 0
-0.0284202 0.0311399 0
-0.0166582 0.039359 0
-0.0190061 0.0457498 0
-0.0291333 0.0498261 0
-0.0407097 0.051102 0
-0.051284 0.0501172 0
-0.058405 0.0474113 0
-0.0639558 0.0432281 0
-0.0698191 0.0378115 0
-0.0752117 0.0314009 0
-0.0793503 0.0242356 0
-0.0823425 0.0165246 0
-0.0842961 0.00847676 0
-0.0850874 0.000239348 0
-0.0845925 -0.00804036 0
-0.082906 -0.0162119 0
-0.0801223 -0.0241248 0
-0.0761364 -0.0315316 0
-0.070843 -0.0381846 0
-0.0649831 -0.0438424 0
-0.0592972 -0.0482636 0
-0.0520519 -0.0511594 0
-0.0415136 -0.0522411 0
-0.0298478 -0.0509348 0
-0.0192198 -0.0466664 0
-0.0158382 -0.0401092 0
-0.0259115 -0.0319366 0
-0.027834 -0.0194623 0
0 0 0
0 0 0
-0.0281851 0.0226798 0
-0.0271324 0.0372468 0
-0.017784 0.0467377 0
-0.021082 0.0541892 0
-0.0315586 0.0588464 0
-0.0437456 0.0599543 0
-0.0550038 0.0584051 0
-0.0626937 0.0550915 0
-0.0687362 0.0501681 0
-0.0750523 0.0437899 0
-0.0808228 0.0362927 0
-0.0852287 0.0280126 0
-0.0884181 0.0191488 0
-0.0905388 0.00990063 0
-0.0914399 0.000426142 0
-0.0909705 -0.00911654 0
-0.0892519 -0.0185402 0
-0.0864054 -0.0276577 0
-0.0822502 -0.0362631 0
-0.0766053 -0.0441506 0
-0.0703035 -0.0508973 0
-0.0641773 -0.0560802 0
-0.0563354 -0.0596096 0
-0.0448861 -0.0613958 0
-0.0323836 -0.0603757 0
-0.0213819 -0.0554863 0
-0.0170779 -0.0476613 0
-0.0246686 -0.0378344 0
-0.0252706 -0.0229619 0
0 0 0
0 0 0
-0.0284224 0.0271967 0
-0.0279205 0.0442509 0
-0.0193339 0.0550634 0
-0.0235025 0.0635348 0
-0.0348757 0.068739 0
-0.047903 0.0697501 0
-0.0599389 0.067668 0
-0.0683377 0.063593 0
-0.0749832 0.0577279 0
-0.0817589 0.0502756 0
-0.0878875 0.0416118 0
-0.0925917 0.0321118 0
-0.0960114 0.0219896 0
-0.0982867 0.0114592 0
-0.0992894 0.000683069 0
-0.0988914 -0.0101763 0
-0.0971791 -0.0209351 0
-0.0942393 -0.0314095 0
-0.0898992 -0.0413604 0
-0.0839862 -0.0505491 0
-0.0772699 -0.0585076 0
-0.0705201 -0.064768 0
-0.0618967 -0.0691802 0
-0.0495597 -0.071594 0
-0.036087 -0.0707083 0
-0.0240564 -0.0652221 0
-0.0187561 -0.0562911 0
-0.0254744 -0.0450713 0
-0.0254696 -0.0276214 0
0 0 0
0 0 0
-0.029569 0.03206 0
-0.0295124 0.0519507 0
-0.0213221 0.064346 0
-0.0264897 0.0739198 0
-0.0390711 0.0796483 0
-0.0531222 0.0805078 0
-0.0660414 0.0777949 0
-0.0752272 0.0728066 0
-0.0825212 0.0658414 0
-0.0897649 0.0571981 0
-0.0962419 0.0472751 0
-0.101236 0.0364707 0
-0.104879 0.0250191 0
-0.107305 0.0131544 0
-0.108416 0.00103276 0
-0.108114 -0.0111896 0
-0.106441 -0.023348 0
-0.103439 -0.0352778 0
-0.0989496 -0.046692 0
-0.0928133 -0.0573037 0
-0.0856978 -0.0666344 0
-0.0782704 -0.0742059 0
-0.0687817 -0.0797201 0
-0.0554825 -0.0828787 0
-0.0408648 -0.0821834 0
-0.0274208 -0.0761361 0
-0.0209126 -0.0660513 0
-0.0271024 -0.0532438 0
-0.0265962 -0.0328484 0
0 0 0
0 0 0
-0.0297583 0.036991 0
-0.0306361 0.0601446 0
-0.0237623 0.0745953 0
-0.0302656 0.0854778 0
-0.0441311 0.0917189 0
-0.0593435 0.0922457 0
-0.0732638 0.0886749 0
-0.0832525 0.0826232 0
-0.0911749 0.074443 0
-0.0988962 0.0644866 0
-0.105722 0.0531994 0
-0.110957 0.0410267 0
-0.114777 0.0282093 0
-0.117359 0.014988 0
-0.1186 0.00149783 0
-0.118398 -0.0121262 0
-0.116792 -0.0257302 0
-0.113821 -0.0391604 0
-0.109267 -0.0521265 0
-0.102914 -0.064338 0
-0.0954027 -0.0752387 0
-0.0873732 -0.0842727 0
-0.0770363 -0.091078 0
-0.0626024 -0.0952928 0
-0.0466238 -0.095052 0
-0.0316525 -0.0884908 0
-0.0235871 -0.0769945 0
-0.0283262 -0.0619486 0
-0.0268153 -0.0380511 0
0 0 0
0 0 0
-0.0297218 0.0422695 0
-0.0318569 0.0692009 0
-0.0267945 0.0861472 0
-0.034924 0.0984615 0
-0.0502291 0.10512 0
-0.0666936 0.105101 0
-0.081648 0.100418 0
-0.0924227 0.0930875 0
-0.100917 0.0835108 0
-0.109032 0.0720902 0
-0.116111 0.059328 0
-0.121499 0.0457264 0
-0.125425 0.0315185 0
-0.128121 0.0169376 0
-0.129484 0.0020847 0
-0.129408 -0.0129392 0
-0.127932 -0.0280029 0
-0.125094 -0.0429751 0
-0.120599 -0.0575834 0
-0.114152 -0.0715558 0
-0.106359 -0.0842403 0
-0.0978266 -0.0949851 0
-0.086685 -0.103375 0
-0.0710637 -0.108996 0
-0.0535889 -0.109504 0
-0.0368867 -0.102556 0
-0.0269289 -0.0894997 0
-0.0296867 -0.0716847 0
-0.0268229 -0.0436663 0
0 0 0
0 0 0
-0.0301905 0.0481754 0
-0.0337398 0.0794881 0
-0.0305588 0.0993377 0
-0.0405584 0.113124 0
-0.0575384 0.120023 0
-0.0752989 0.119211 0
-0.0912363 0.113136 0
-0.102747 0.104244 0
-0.111722 0.0930233 0
-0.120052 0.0799581 0
-0.127194 0.0656041 0
-0.132605 0.0505164 0
-0.136544 0.0349053 0
-0.139267 0.018981 0
-0.14071 0.00279978 0
-0.140809 -0.0135822 0
-0.139563 -0.0300877 0
-0.136969 -0.0466394 0
-0.13269 -0.0629822 0
-0.126387 -0.0788609 0
-0.11854 -0.0935589 0
-0.109629 -0.10636 0
-0.0977527 -0.116734 0
-0.0810105 -0.124149 0
-0.0619851 -0.12573 0
-0.0432589 -0.118601 0
-0.0310872 -0.103946 0
-0.0317251 -0.0829514 0
-0.0273152 -0.050131 0
0 0 0
0 0 0
-0.0308169 0.054965 0
-0.0361011 0.0913415 0
-0.035151 0.114466 0
-0.0472648 0.129677 0
-0.0660349 0.136525 0
-0.0850536 0.134562 0
-0.101824 0.126709 0
-0.11385 0.115885 0
-0.123041 0.102716 0
-0.131306 0.0878304 0
-0.138242 0.0718021 0
-0.143445 0.0552061 0
-0.147214 0.0382234 0
-0.149844 0.0210352 0
-0.151318 0.00363043 0
-0.151617 -0.014002 0
-0.150698 -0.0318654 0
-0.148521 -0.0499631 0
-0.1447 -0.0680715 0
-0.13885 -0.0859672 0
-0.131283 -0.102909 0
-0.12231 -0.118155 0
-0.109974 -0.130996 0
-0.0923189 -0.140724 0
-0.0718065 -0.143857 0
-0.0508982 -0.136916 0
-0.0361943 -0.120738 0
-0.0342949 -0.096157 0
-0.0279726 -0.0577271 0
0 0 0
0 0 0
-0.0312531 0.0628945 0
-0.0387568 0.105096 0
-0.0406669 0.131833 0
-0.0551393 0.148332 0
-0.0756942 0.154725 0
-0.0958519 0.151142 0
-0.113208 0.141021 0
-0.125358 0.127799 0
-0.134329 0.112325 0
-0.142146 0.0954473 0
-0.148527 0.0776964 0
-0.153187 0.0596047 0
-0.156517 0.0413267 0
-0.158904 0.0230173 0
-0.160348 0.004564 0
-0.160845 -0.0141457 0
-0.160352 -0.0332172 0
-0.158822 -0.0527557 0
-0.155784 -0.0725999 0
-0.150768 -0.0925887 0
-0.143923 -0.112004 0
-0.135399 -0.130126 0
-0.123084 -0.146006 0
-0.104865 -0.158693 0
-0.0830471 -0.164014 0
-0.059934 -0.157793 0
-0.0423826 -0.140277 0
-0.0372498 -0.11171 0
-0.0284757 -0.0667363 0
0 0 0
0 0 0
-0.0322671 0.0716183 0
-0.0424122 0.120576 0
-0.0474672 0.151514 0
-0.0644637 0.16907 0
-0.0866968 0.174343 0
-0.107461 0.168433 0
-0.12469 0.155404 0
-0.136315 0.139321 0
-0.144459 0.121244 0
-0.151247 0.102236 0
-0.156556 0.0827656 0
-0.160267 0.0633036 0
-0.162851 0.0439394 0
-0.164782 0.0247629 0
-0.16608 0.00554407 0
-0.166765 -0.0139473 0
-0.166797 -0.0339398 0
-0.166131 -0.0546619 0
-0.164229 -0.0760599 0
-0.160553 -0.0980804 0
-0.155059 -0.120085 0
-0.147705 -0.141437 0
-0.1362 -0.160935 0
-0.118253 -0.177377 0
-0.0957471 -0.185779 0
-0.0705682 -0.18116 0
-0.0500041 -0.162672 0
-0.0413426 -0.129472 0
-0.0296518 -0.0768253 0
0 0 0
0 0 0
-0.0346269 0.0807906 0
-0.047773 0.137605 0
-0.0559127 0.173585 0
-0.07552 0.191868 0
-0.0992231 0.195099 0
-0.11965 0.18592 0
-0.135573 0.169193 0
-0.145764 0.149781 0
-0.152307 0.128864 0
-0.157282 0.107622 0
-0.160837 0.0864881 0
-0.16312 0.0658942 0
-0.164616 0.0457857 0
-0.165812 0.0261077 0
-0.166794 0.00651422 0
-0.167647 -0.0133408 0
-0.168306 -0.0338301 0
-0.168707 -0.0553265 0
-0.16832 -0.0779442 0
-0.166615 -0.101797 0
-0.163289 -0.126396 0
-0.158038 -0.15125 0
-0.148442 -0.174952 0
-0.132086 -0.196092 0
-0.109946 -0.208735 0
-0.0830029 -0.206946 0
-0.0594109 -0.188033 0
-0.0473259 -0.149305 0
-0.0323287 -0.0876606 0
0 0 0
0 0 0
-0.0362359 0.0920504 0
-0.0531185 0.157723 0
-0.0652182 0.198661 0
-0.0871054 0.216507 0
-0.111218 0.216214 0
-0.129993 0.202737 0
-0.14322 0.181627 0
-0.150691 0.158437 0
-0.154505 0.134481 0
-0.156764 0.111078 0
-0.157855 0.0885235 0
-0.158164 0.0671131 0
-0.158171 0.0466293 0
-0.158358 0.0268543 0
-0.158856 0.00731776 0
-0.1598 -0.0124508 0
-0.161123 -0.0329709 0
-0.16276 -0.0547622 0
-0.164229 -0.0781404 0
-0.165049 -0.103421 0
-0.164704 -0.130383 0
-0.162676 -0.158804 0
-0.156435 -0.187104 0
-0.143455 -0.213706 0
-0.123413 -0.231831 0
-0.095989 -0.234701 0
-0.0697699 -0.216896 0
-0.0533413 -0.172996 0
-0.0342393 -0.101274 0
0 0 0
0 0 0
-0.0349976 0.107037 0
-0.056728 0.182471 0
-0.0745986 0.227361 0
-0.0980169 0.242764 0
-0.120625 0.236908 0
-0.136066 0.21802 0
-0.144997 0.191949 0
-0.148078 0.164543 0
-0.147687 0.137389 0
-0.146205 0.112074 0
-0.144094 0.0885313 0
-0.141817 0.0666968 0
-0.139877 0.0462336 0
-0.13878 0.0268053 0
-0.138631 0.00779802 0
-0.139534 -0.0114022 0
-0.141489 -0.0314454 0
-0.144497 -0.0529817 0
-0.148128 -0.0765367 0
-0.151948 -0.102636 0
-0.155393 -0.131496 0
-0.157899 -0.163338 0
-0.156805 -0.196441 0
-0.149449 -0.229088 0
-0.133914 -0.254019 0
-0.108278 -0.263976 0
-0.0802479 -0.249801 0
-0.0575301 -0.202336 0
-0.0331166 -0.119697 0
0 0 0
0 0 0
-0.0406735 0.122761 0
-0.0661995 0.207699 0
-0.0853557 0.255445 0
-0.10692 0.266631 0
-0.125001 0.253446 0
-0.133709 0.228083 0
-0.135217 0.196655 0
-0.131699 0.165277 0
-0.125561 0.135514 0
-0.11921 0.108929 0
-0.113098 0.0851081 0
-0.107676 0.0636389 0
-0.103411 0.0440003 0
-0.100769 0.0256716 0
-0.0998 0.00792986 0
-0.100553 -0.00994748 0
-0.103108 -0.0287028 0
-0.107545 -0.0490784 0
-0.11355 -0.0718405 0
-0.120813 -0.0977556 0
-0.128894 -0.127469 0
-0.137353 -0.161627 0
-0.143596 -0.198803 0
-0.145029 -0.237574 0
-0.13783 -0.270465 0
-0.118177 -0.290006 0
-0.0929273 -0.282114 0
-0.0689383 -0.232707 0
-0.0400245 -0.139448 0
0 0 0
0 0 0
-0.0630255 0.136236 0
-0.0891313 0.229257 0
-0.0987911 0.278675 0
-0.112479 0.284097 0
-0.121901 0.262095 0
-0.118764 0.229239 0
-0.108197 0.192241 0
-0.0953294 0.157815 0
-0.0818337 0.126782 0
-0.069383 0.0999635 0
-0.0584083 0.0768503 0
-0.0493409 0.0569329 0
-0.042452 0.039331 0
-0.0380129 0.0231638 0
-0.0360438 0.00768811 0
-0.0365647 -0.00783937 0
-0.0396878 -0.0241926 0
-0.0455254 -0.0421454 0
-0.054028 -0.0627597 0
-0.0651462 -0.0870974 0
-0.0787433 -0.116034 0
-0.0946826 -0.150444 0
-0.110855 -0.190032 0
-0.125152 -0.234501 0
-0.131542 -0.276338 0
-0.123994 -0.308026 0
-0.10989 -0.309201 0
-0.0966123 -0.259494 0
-0.0660266 -0.157047 0
0 0 0
0 0 0
-0.0788049 0.147945 0
-0.105737 0.248399 0
-0.105996 0.297679 0
-0.104781 0.292103 0
-0.0970812 0.256566 0
-0.0778831 0.215963 0
-0.0534184 0.175504 0
-0.0299184 0.140398 0
-0.00837811 0.1104 0
0.0102076 0.085263 0
0.0257334 0.0643985 0
0.0380943 0.0472167 0
0.0472818 0.0325861 0
0.0532876 0.0193754 0
0.0561509 0.00688646 0
0.055911 -0.00557887 0
0.052418 -0.0187575 0
0.0455222 -0.0333865 0
0.0349931 -0.0506952 0
0.0206005 -0.0719131 0
0.00196986 -0.0980497 0
-0.0212733 -0.130115 0
-0.0478521 -0.16919 0
-0.07649 -0.216358 0
-0.100764 -0.266683 0
-0.114252 -0.315227 0
-0.118752 -0.33085 0
-0.116064 -0.282414 0
-0.0839069 -0.171578 0
0 0 0
0 0 0
-0.0647635 0.158375 0
-0.0962307 0.266375 0
-0.0980615 0.313085 0
-0.0739158 0.287589 0
-0.0362999 0.230575 0
0.00227959 0.182732 0
0.0396363 0.143236 0
0.0735839 0.111265 0
0.102933 0.0855725 0
0.126493 0.0649119 0
0.145086 0.0483936 0
0.159534 0.035128 0
0.170071 0.0241263 0
0.176931 0.0143998 0
0.180298 0.00533859 0
0.180353 -0.00366704 0
0.176855 -0.0132406 0
0.169561 -0.0240054 0
0.158068 -0.0370481 0
0.141974 -0.0534549 0
0.120156 -0.0743763 0
0.0914895 -0.100963 0
0.0561436 -0.135339 0
0.014287 -0.179631 0
-0.0312085 -0.236548 0
-0.0774707 -0.308798 0
-0.107127 -0.346853 0
-0.102806 -0.301187 0
-0.0664492 -0.182126 0
0 0 0
0 0 0
-0.0192421 0.151056 0
-0.0307115 0.252235 0
-0.0201057 0.291673 0
0.0268778 0.257504 0
0.0870673 0.193138 0
0.137291 0.141981 0
0.180124 0.103579 0
0.21814 0.0774776 0
0.24996 0.0591944 0
0.274201 0.0442466 0
0.292544 0.0323302 0
0.306671 0.0231416 0
0.316874 0.0157672 0
0.323446 0.00929368 0
0.326718 0.00328966 0
0.327021 -0.00267625 0
0.324023 -0.0089661 0
0.317391 -0.0159419 0
0.306758 -0.0247133 0
0.291757 -0.03639 0
0.270619 -0.0511283 0
0.241578 -0.0690847 0
0.204421 -0.0960052 0
0.158938 -0.137636 0
0.103148 -0.196341 0
0.0350698 -0.274484 0
-0.0179333 -0.320505 0
-0.0284969 -0.282847 0
-0.0160447 -0.172387 0
0 0 0
2.77334e-30 0 0
0.0594181 0.109521 0
0.120721 0.175027 0
0.182753 0.200219 0
0.244359 0.188797 0
0.299644 0.153269 0
0.342718 0.106145 0
0.377201 0.0646709 0
0.406714 0.0460949 0
0.430565 0.0381586 0
0.448059 0.0286035 0
0.461003 0.0197034 0
0.4712 0.0137322 0
0.478653 0.00932425 0
0.483363 0.00511385 0
0.485735 0.000984852 0
0.486176 -0.00317888 0
0.484324 -0.00725861 0
0.479816 -0.0111356 0
0.472626 -0.0165859 0
0.46273 -0.0253856 0
0.448163 -0.0344205 0
0.426963 -0.0405766 0
0.400269 -0.0587128 0
0.369224 -0.103688 0
0.32833 -0.156471 0
0.272091 -0.198027 0
0.205913 -0.2151 0
0.135204 -0.194432 0
0.0649155 -0.126055 0
2.77334e-30 0 0
0.25 0 0
0.342178 0.0528197 0
0.437736 0.0768994 0
0.519721 0.0869264 0
0.571181 0.097588 0
0.603324 0.0944104 0
0.627355 0.0629198 0
0.645586 0.0292365 0
0.660327 0.0194811 0
0.67162 0.0194367 0
0.679511 0.0148866 0
0.685232 0.00932321 0
0.690013 0.00623871 0
0.693623 0.00425077 0
0.69583 0.00197704 0
0.696959 -0.000477738 0
0.697332 -0.00300882 0
0.696677 -0.00523195 0
0.694722 -0.00676287 0
0.691698 -0.00942758 0
0.687831 -0.0150521 0
0.681665 -0.0190965 0
0.671739 -0.0170209 0
0.660019 -0.0258989 0
0.648469 -0.0628041 0
0.631544 -0.0975016 0
0.603698 -0.0997563 0
0.550021 -0.0888583 0
0.455601 -0.0840973 0
0.346806 -0.0622268 0
0.25 0 0
1 0 0
1 0 0
1 0 0
1 0 0
1 0 0
1 0 0
1 0 0
1 0 0
1 0 0
1 0 0
1 0 0
1 0 0
1 0 0
1 0 0
1 0 0
1 0 0
1 0 0
1 0 0
1 0 0
1 0 0
1 0 0
1 0 0
1 0 0
1 0 0
1 0 0
1 0 0
1 0 0
1 0 0
1 0 0