<?xml version="1.0"?>
<VTKFile type="UnstructuredGrid">
  <UnstructuredGrid>
  <Piece NumberOfPoints="961"  NumberOfCells="225">
    <Points>
      <DataArray type="Float64" NumberOfComponents="3" format="ascii">
0 0 0
0.0333333 0 0
0.0666667 0 0
0.1 0 0
0.133333 0 0
0.166667 0 0
0.2 0 0
0.233333 0 0
0.266667 0 0
0.3 0 0
0.333333 0 0
0.366667 0 0
0.4 0 0
0.433333 0 0
0.466667 0 0
0.5 0 0
0.533333 0 0
0.566667 0 0
0.6 0 0
0.633333 0 0
0.666667 0 0
0.7 0 0
0.733333 0 0
0.766667 0 0
0.8 0 0
0.833333 0 0
0.866667 0 0
0.9 0 0
0.933333 0 0
0.966667 0 0
1 0 0
0 0.0333333 0
0.0333333 0.0333333 0
0.0666667 0.0333333 0
0.1 0.0333333 0
0.133333 0.0333333 0
0.166667 0.0333333 0
0.2 0.0333333 0
0.233333 0.0333333 0
0.266667 0.0333333 0
0.3 0.0333333 0
0.333333 0.0333333 0
0.366667 0.0333333 0
0.4 0.0333333 0
0.433333 0.0333333 0
0.466667 0.0333333 0
0.5 0.0333333 0
0.533333 0.0333333 0
0.566667 0.0333333 0
0.6 0.0333333 0
0.633333 0.0333333 0
0.666667 0.0333333 0
0.7 0.0333333 0
0.733333 0.0333333 0
0.766667 0.0333333 0
0.8 0.0333333 0
0.833333 0.0333333 0
0.866667 0.0333333 0
0.9 0.0333333 0
0.933333 0.0333333 0
0.966667 0.0333333 0
1 0.0333333 0
0 0.0666667 0
0.0333333 0.0666667 0
0.0666667 0.0666667 0
0.1 0.0666667 0
0.133333 0.0666667 0
0.166667 0.0666667 0
0.2 0.0666667 0
0.233333 0.0666667 0
0.266667 0.0666667 0
0.3 0.0666667 0
0.333333 0.0666667 0
0.366667 0.0666667 0
0.4 0.0666667 0
0.433333 0.0666667 0
0.466667 0.0666667 0
0.5 0.0666667 0
0.533333 0.0666667 0
0.566667 0.0666667 0
0.6 0.0666667 0
0.633333 0.0666667 0
0.666667 0.0666667 0
0.7 0.0666667 0
0.733333 0.0666667 0
0.766667 0.0666667 0
0.8 0.0666667 0
0.833333 0.0666667 0
0.866667 0.0666667 0
0.9 0.0666667 0
0.933333 0.0666667 0
0.966667 0.0666667 0
1 0.0666667 0
0 0.1 0
0.0333333 0.1 0
0.0666667 0.1 0
0.1 0.1 0
0.133333 0.1 0
0.166667 0.1 0
0.2 0.1 0
0.233333 0.1 0
0.266667 0.1 0
0.3 0.1 0
0.333333 0.1 0
0.366667 0.1 0
0.4 0.1 0
0.433333 0.1 0
0.466667 0.1 0
0.5 0.1 0
0.533333 0.1 0
0.566667 0.1 0
0.6 0.1 0
0.633333 0.1 0
0.666667 0.1 0
0.7 0.1 0
0.733333 0.1 0
0.766667 0.1 0
0.8 0.1 0
0.833333 0.1 0
0.866667 0.1 0
0.9 0.1 0
0.933333 0.1 0
0.966667 0.1 0
1 0.1 0
0 0.133333 0
0.0333333 0.133333 0
0.0666667 0.133333 0
0.1 0.133333 0
0.133333 0.133333 0
0.166667 0.133333 0
0.2 0.133333 0
0.233333 0.133333 0
0.266667 0.133333 0
0.3 0.133333 0
0.333333 0.133333 0
0.366667 0.133333 0
0.4 0.133333 0
0.433333 0.133333 0
0.466667 0.133333 0
0.5 0.133333 0
0.533333 0.133333 0
0.566667 0.133333 0
0.6 0.133333 0
0.633333 0.133333 0
0.666667 0.133333 0
0.7 0.133333 0
0.733333 0.133333 0
0.766667 0.133333 0
0.8 0.133333 0
0.833333 0.133333 0
0.866667 0.133333 0
0.9 0.133333 0
0.933333 0.133333 0
0.966667 0.133333 0
1 0.133333 0
0 0.166667 0
0.0333333 0.166667 0
0.0666667 0.166667 0
0.1 0.166667 0
0.133333 0.166667 0
0.166667 0.166667 0
0.2 0.166667 0
0.233333 0.166667 0
0.266667 0.166667 0
0.3 0.166667 0
0.333333 0.166667 0
0.366667 0.166667 0
0.4 0.166667 0
0.433333 0.166667 0
0.466667 0.166667 0
0.5 0.166667 0
0.533333 0.166667 0
0.566667 0.166667 0
0.6 0.166667 0
0.633333 0.166667 0
0.666667 0.166667 0
0.7 0.166667 0
0.733333 0.166667 0
0.766667 0.166667 0
0.8 0.166667 0
0.833333 0.166667 0
0.866667 0.166667 0
0.9 0.166667 0
0.933333 0.166667 0
0.966667 0.166667 0
1 0.166667 0
0 0.2 0
0.0333333 0.2 0
0.0666667 0.2 0
0.1 0.2 0
0.133333 0.2 0
0.166667 0.2 0
0.2 0.2 0
0.233333 0.2 0
0.266667 0.2 0
0.3 0.2 0
0.333333 0.2 0
0.366667 0.2 0
0.4 0.2 0
0.433333 0.2 0
0.466667 0.2 0
0.5 0.2 0
0.533333 0.2 0
0.566667 0.2 0
0.6 0.2 0
0.633333 0.2 0
0.666667 0.2 0
0.7 0.2 0
0.733333 0.2 0
0.766667 0.2 0
0.8 0.2 0
0.833333 0.2 0
0.866667 0.2 0
0.9 0.2 0
0.933333 0.2 0
0.966667 0.2 0
1 0.2 0
0 0.233333 0
0.0333333 0.233333 0
0.0666667 0.233333 0
0.1 0.233333 0
0.133333 0.233333 0
0.166667 0.233333 0
0.2 0.233333 0
0.233333 0.233333 0
0.266667 0.233333 0
0.3 0.233333 0
0.333333 0.233333 0
0.366667 0.233333 0
0.4 0.233333 0
0.433333 0.233333 0
0.466667 0.233333 0
0.5 0.233333 0
0.533333 0.233333 0
0.566667 0.233333 0
0.6 0.233333 0
0.633333 0.233333 0
0.666667 0.233333 0
0.7 0.233333 0
0.733333 0.233333 0
0.766667 0.233333 0
0.8 0.233333 0
0.833333 0.233333 0
0.866667 0.233333 0
0.9 0.233333 0
0.933333 0.233333 0
0.966667 0.233333 0
1 0.233333 0
0 0.266667 0
0.0333333 0.266667 0
0.0666667 0.266667 0
0.1 0.266667 0
0.133333 0.266667 0
0.166667 0.266667 0
0.2 0.266667 0
0.233333 0.266667 0
0.266667 0.266667 0
0.3 0.266667 0
0.333333 0.266667 0
0.366667 0.266667 0
0.4 0.266667 0
0.433333 0.266667 0
0.466667 0.266667 0
0.5 0.266667 0
0.533333 0.266667 0
0.566667 0.266667 0
0.6 0.266667 0
0.633333 0.266667 0
0.666667 0.266667 0
0.7 0.266667 0
0.733333 0.266667 0
0.766667 0.266667 0
0.8 0.266667 0
0.833333 0.266667 0
0.866667 0.266667 0
0.9 0.266667 0
0.933333 0.266667 0
0.966667 0.266667 0
1 0.266667 0
0 0.3 0
0.0333333 0.3 0
0.0666667 0.3 0
0.1 0.3 0
0.133333 0.3 0
0.166667 0.3 0
0.2 0.3 0
0.233333 0.3 0
0.266667 0.3 0
0.3 0.3 0
0.333333 0.3 0
0.366667 0.3 0
0.4 0.3 0
0.433333 0.3 0
0.466667 0.3 0
0.5 0.3 0
0.533333 0.3 0
0.566667 0.3 0
0.6 0.3 0
0.633333 0.3 0
0.666667 0.3 0
0.7 0.3 0
0.733333 0.3 0
0.766667 0.3 0
0.8 0.3 0
0.833333 0.3 0
0.866667 0.3 0
0.9 0.3 0
0.933333 0.3 0
0.966667 0.3 0
1 0.3 0
0 0.333333 0
0.0333333 0.333333 0
0.0666667 0.333333 0
0.1 0.333333 0
0.133333 0.333333 0
0.166667 0.333333 0
0.2 0.333333 0
0.233333 0.333333 0
0.266667 0.333333 0
0.3 0.333333 0
0.333333 0.333333 0
0.366667 0.333333 0
0.4 0.333333 0
0.433333 0.333333 0
0.466667 0.333333 0
0.5 0.333333 0
0.533333 0.333333 0
0.566667 0.333333 0
0.6 0.333333 0
0.633333 0.333333 0
0.666667 0.333333 0
0.7 0.333333 0
0.733333 0.333333 0
0.766667 0.333333 0
0.8 0.333333 0
0.833333 0.333333 0
0.866667 0.333333 0
0.9 0.333333 0
0.933333 0.333333 0
0.966667 0.333333 0
1 0.333333 0
0 0.366667 0
0.0333333 0.366667 0
0.0666667 0.366667 0
0.1 0.366667 0
0.133333 0.366667 0
0.166667 0.366667 0
0.2 0.366667 0
0.233333 0.366667 0
0.266667 0.366667 0
0.3 0.366667 0
0.333333 0.366667 0
0.366667 0.366667 0
0.4 0.366667 0
0.433333 0.366667 0
0.466667 0.366667 0
0.5 0.366667 0
0.533333 0.366667 0
0.566667 0.366667 0
0.6 0.366667 0
0.633333 0.366667 0
0.666667 0.366667 0
0.7 0.366667 0
0.733333 0.366667 0
0.766667 0.366667 0
0.8 0.366667 0
0.833333 0.366667 0
0.866667 0.366667 0
0.9 0.366667 0
0.933333 0.366667 0
0.966667 0.366667 0
1 0.366667 0
0 0.4 0
0.0333333 0.4 0
0.0666667 0.4 0
0.1 0.4 0
0.133333 0.4 0
0.166667 0.4 0
0.2 0.4 0
0.233333 0.4 0
0.266667 0.4 0
0.3 0.4 0
0.333333 0.4 0
0.366667 0.4 0
0.4 0.4 0
0.433333 0.4 0
0.466667 0.4 0
0.5 0.4 0
0.533333 0.4 0
0.566667 0.4 0
0.6 0.4 0
0.633333 0.4 0
0.666667 0.4 0
0.7 0.4 0
0.733333 0.4 0
0.766667 0.4 0
0.8 0.4 0
0.833333 0.4 0
0.866667 0.4 0
0.9 0.4 0
0.933333 0.4 0
0.966667 0.4 0
1 0.4 0
0 0.433333 0
0.0333333 0.433333 0
0.0666667 0.433333 0
0.1 0.433333 0
0.133333 0.433333 0
0.166667 0.433333 0
0.2 0.433333 0
0.233333 0.433333 0
0.266667 0.433333 0
0.3 0.433333 0
0.333333 0.433333 0
0.366667 0.433333 0
0.4 0.433333 0
0.433333 0.433333 0
0.466667 0.433333 0
0.5 0.433333 0
0.533333 0.433333 0
0.566667 0.433333 0
0.6 0.433333 0
0.633333 0.433333 0
0.666667 0.433333 0
0.7 0.433333 0
0.733333 0.433333 0
0.766667 0.433333 0
0.8 0.433333 0
0.833333 0.433333 0
0.866667 0.433333 0
0.9 0.433333 0
0.933333 0.433333 0
0.966667 0.433333 0
1 0.433333 0
0 0.466667 0
0.0333333 0.466667 0
0.0666667 0.466667 0
0.1 0.466667 0
0.133333 0.466667 0
0.166667 0.466667 0
0.2 0.466667 0
0.233333 0.466667 0
0.266667 0.466667 0
0.3 0.466667 0
0.333333 0.466667 0
0.366667 0.466667 0
0.4 0.466667 0
0.433333 0.466667 0
0.466667 0.466667 0
0.5 0.466667 0
0.533333 0.466667 0
0.566667 0.466667 0
0.6 0.466667 0
0.633333 0.466667 0
0.666667 0.466667 0
0.7 0.466667 0
0.733333 0.466667 0
0.766667 0.466667 0
0.8 0.466667 0
0.833333 0.466667 0
0.866667 0.466667 0
0.9 0.466667 0
0.933333 0.466667 0
0.966667 0.466667 0
1 0.466667 0
0 0.5 0
0.0333333 0.5 0
0.0666667 0.5 0
0.1 0.5 0
0.133333 0.5 0
0.166667 0.5 0
0.2 0.5 0
0.233333 0.5 0
0.266667 0.5 0
0.3 0.5 0
0.333333 0.5 0
0.366667 0.5 0
0.4 0.5 0
0.433333 0.5 0
0.466667 0.5 0
0.5 0.5 0
0.533333 0.5 0
0.566667 0.5 0
0.6 0.5 0
0.633333 0.5 0
0.666667 0.5 0
0.7 0.5 0
0.733333 0.5 0
0.766667 0.5 0
0.8 0.5 0
0.833333 0.5 0
0.866667 0.5 0
0.9 0.5 0
0.933333 0.5 0
0.966667 0.5 0
1 0.5 0
0 0.533333 0
0.0333333 0.533333 0
0.0666667 0.533333 0
0.1 0.533333 0
0.133333 0.533333 0
0.166667 0.533333 0
0.2 0.533333 0
0.233333 0.533333 0
0.266667 0.533333 0
0.3 0.533333 0
0.333333 0.533333 0
0.366667 0.533333 0
0.4 0.533333 0
0.433333 0.533333 0
0.466667 0.533333 0
0.5 0.533333 0
0.533333 0.533333 0
0.566667 0.533333 0
0.6 0.533333 0
0.633333 0.533333 0
0.666667 0.533333 0
0.7 0.533333 0
0.733333 0.533333 0
0.766667 0.533333 0
0.8 0.533333 0
0.833333 0.533333 0
0.866667 0.533333 0
0.9 0.533333 0
0.933333 0.533333 0
0.966667 0.533333 0
1 0.533333 0
0 0.566667 0
0.0333333 0.566667 0
0.0666667 0.566667 0
0.1 0.566667 0
0.133333 0.566667 0
0.166667 0.566667 0
0.2 0.566667 0
0.233333 0.566667 0
0.266667 0.566667 0
0.3 0.566667 0
0.333333 0.566667 0
0.366667 0.566667 0
0.4 0.566667 0
0.433333 0.566667 0
0.466667 0.566667 0
0.5 0.566667 0
0.533333 0.566667 0
0.566667 0.566667 0
0.6 0.566667 0
0.633333 0.566667 0
0.666667 0.566667 0
0.7 0.566667 0
0.733333 0.566667 0
0.766667 0.566667 0
0.8 0.566667 0
0.833333 0.566667 0
0.866667 0.566667 0
0.9 0.566667 0
0.933333 0.566667 0
0.966667 0.566667 0
1 0.566667 0
0 0.6 0
0.0333333 0.6 0
0.0666667 0.6 0
0.1 0.6 0
0.133333 0.6 0
0.166667 0.6 0
0.2 0.6 0
0.233333 0.6 0
0.266667 0.6 0
0.3 0.6 0
0.333333 0.6 0
0.366667 0.6 0
0.4 0.6 0
0.433333 0.6 0
0.466667 0.6 0
0.5 0.6 0
0.533333 0.6 0
0.566667 0.6 0
0.6 0.6 0
0.633333 0.6 0
0.666667 0.6 0
0.7 0.6 0
0.733333 0.6 0
0.766667 0.6 0
0.8 0.6 0
0.833333 0.6 0
0.866667 0.6 0
0.9 0.6 0
0.933333 0.6 0
0.966667 0.6 0
1 0.6 0
0 0.633333 0
0.0333333 0.633333 0
0.0666667 0.633333 0
0.1 0.633333 0
0.133333 0.633333 0
0.166667 0.633333 0
0.2 0.633333 0
0.233333 0.633333 0
0.266667 0.633333 0
[...]
    <PointData>
      <DataArray type="Float64" NumberOfComponents="3" Name="Velocity" format="ascii">
0 0 0
0 0 0
0 0 0
0 0 0
0 0 0
0 0 0
0 0 0
0 0 0
0 0 0
0 0 0
0 0 0
0 0 0
0 0 0
0 0 0
0 0 0
0 0 0
0 0 0
0 0 0
0 0 0
0 0 0
0 0 0
0 0 0
0 0 0
0 0 0
0 0 0
0 0 0
0 0 0
0 0 0
0 0 0
0 0 0
0 0 0
0 0 0
0.0160567 -0.0012149 0
0.0222613 -0.00118449 0
0.0232683 -0.000648104 0
0.0237324 -0.000345083 0
0.0239207 -0.000196458 0
0.0241004 -0.000123261 0
0.0242299 -8.7061e-05 0
0.0242678 -4.94279e-05 0
0.0242803 -2.57408e-05 0
0.0243337 -3.13786e-05 0
0.0243898 -4.2785e-05 0
0.0244105 -3.64034e-05 0
0.0244258 -2.64807e-05 0
0.0244655 -2.72638e-05 0
0.024506 -3.11249e-05 0
0.0245236 -3.04363e-05 0
0.0245396 -2.52353e-05 0
0.0245754 -1.55597e-05 0
0.0246045 -6.14226e-06 0
0.0246007 -1.71569e-06 0
0.0245933 5.23998e-06 0
0.0246117 2.22448e-05 0
0.0245988 6.01008e-05 0
0.0244974 0.00012961 0
0.0243148 0.000235295 0
0.0240585 0.000381676 0
0.0234788 0.000685955 0
0.0223261 0.00126533 0
0.016025 0.00130746 0
0 0 0
0 0 0
0.020656 -0.00211755 0
0.0280436 -0.00211258 0
0.0286447 -0.00122701 0
0.0289408 -0.000702738 0
0.0290384 -0.000406891 0
0.0290437 -0.000206592 0
0.0290042 -9.78273e-05 0
0.0289673 -7.65828e-05 0
0.0289307 -8.64265e-05 0
0.0288919 -7.0926e-05 0
0.0288648 -5.19843e-05 0
0.0288634 -5.15044e-05 0
0.0288752 -5.67709e-05 0
0.0288876 -5.50684e-05 0
0.0289107 -5.04055e-05 0
0.0289549 -4.67908e-05 0
0.0290107 -4.62158e-05 0
0.0290687 -5.06721e-05 0
0.0291384 -4.89306e-05 0
0.0292292 -2.97623e-05 0
0.0293244 -7.86318e-06 0
0.0294074 2.07104e-06 0
0.0294673 4.86379e-05 0
0.0294933 0.000180435 0
0.0294628 0.00042353 0
0.0293532 0.000803989 0
0.0289892 0.00139186 0
0.0281957 0.0022572 0
0.0206426 0.00219493 0
0 0 0
0 0 0
0.0199381 -0.00239471 0
0.0264217 -0.00247943 0
0.0262167 -0.00153962 0
0.0260894 -0.000860752 0
0.0259524 -0.000402909 0
0.0257184 -0.000126157 0
0.025474 1.26233e-06 0
0.0253061 1.11093e-05 0
0.0251639 -1.81056e-05 0
0.0249967 -7.87178e-06 0
0.0248542 5.09951e-06 0
0.024786 -1.59028e-05 0
0.0247534 -4.64823e-05 0
0.0247175 -6.22424e-05 0
0.0247116 -7.26888e-05 0
0.0247689 -8.7327e-05 0
0.0248594 -0.000107787 0
0.024953 -0.0001357 0
0.025081 -0.000154845 0
0.0252743 -0.000149004 0
0.0254912 -0.000133168 0
0.0256902 -0.000122325 0
0.0258909 -6.73953e-05 0
0.0261131 8.07027e-05 0
0.0263315 0.000408277 0
0.0265208 0.00100164 0
0.0266383 0.00180213 0
0.0266412 0.00275111 0
0.0199537 0.00257495 0
0 0 0
0 0 0
0.0200436 -0.00173319 0
0.0264701 -0.00198019 0
0.0260721 -0.00138883 0
0.0256424 -0.000606913 0
0.0252623 4.38816e-05 0
0.025013 0.000241882 0
0.0247907 0.000243769 0
0.0244917 0.000306222 0
0.0241927 0.000343174 0
0.0239704 0.000268555 0
0.0237872 0.000161164 0
0.0236056 9.98016e-05 0
0.0234654 4.87732e-05 0
0.0234067 -2.76148e-05 0
0.0234062 -0.000112822 0
0.0234407 -0.000190308 0
0.0235318 -0.000254795 0
0.0237011 -0.000301005 0
0.0239111 -0.000350366 0
0.0241244 -0.000424307 0
0.0243917 -0.000464532 0
0.0247636 -0.000412748 0
0.0251554 -0.000321005 0
0.0254823 -0.000241357 0
0.0258085 3.31118e-05 0
0.0261983 0.000709318 0
0.0265334 0.00160118 0
0.0266955 0.00252261 0
0.0200595 0.00236006 0
0 0 0
0 0 0
0.0203499 -0.00121119 0
0.0269486 -0.00138397 0
0.0265707 -0.000906597 0
0.0259909 -0.000167341 0
0.0254411 0.000465663 0
0.0251535 0.000624279 0
0.024911 0.000596949 0
0.0244968 0.000672116 0
0.0240632 0.000716653 0
0.0237623 0.00059743 0
0.0235076 0.000427943 0
0.0232125 0.000321689 0
0.02297 0.000222634 0
0.0228732 7.47458e-05 0
0.0228665 -9.10883e-05 0
0.0228947 -0.00024398 0
0.0230111 -0.000375652 0
0.0232693 -0.000477827 0
0.023584 -0.000578278 0
0.0238697 -0.000704776 0
0.0242243 -0.000792924 0
0.0247454 -0.000778323 0
0.0252903 -0.000702522 0
0.025716 -0.000607066 0
0.0261331 -0.000319842 0
0.026652 0.000331265 0
0.0270702 0.00120933 0
0.0271854 0.00217741 0
0.0203708 0.0021396 0
0 0 0
0 0 0
0.0202344 -0.00190692 0
0.0266169 -0.00145984 0
0.0260725 -0.000224872 0
0.0255259 0.00023184 0
0.024962 0.000394621 0
0.0243659 0.000747786 0
0.0237918 0.00102806 0
0.0232943 0.000972151 0
0.0228216 0.000821573 0
0.0223217 0.000817829 0
0.0218588 0.000817168 0
0.0214969 0.000675838 0
0.0212258 0.000468739 0
0.0210352 0.000270771 0
0.0209651 7.22299e-05 0
0.0210553 -0.000136586 0
0.0212802 -0.000358767 0
0.0216138 -0.000597405 0
0.0220544 -0.000781367 0
0.0226001 -0.00083952 0
0.0231876 -0.000909308 0
0.0237535 -0.00112818 0
0.0243251 -0.00120227 0
0.0249296 -0.000837745 0
0.0255448 -0.00026846 0
0.0261486 0.000271708 0
0.0266449 0.0010469 0
0.0269377 0.00232125 0
0.0202988 0.00250291 0
0 0 0
0 0 0
0.0200673 -0.00193651 0
0.0263276 -0.00116563 0
0.0257513 0.000393449 0
0.0253088 0.000821498 0
0.0247989 0.000887794 0
0.0240205 0.00136161 0
0.0231915 0.0017805 0
0.0225297 0.00168203 0
0.0218792 0.00145649 0
0.0210837 0.0014942 0
0.0203266 0.00152631 0
0.0197911 0.00128395 0
0.0194131 0.000920294 0
0.0191288 0.000588521 0
0.0190209 0.000265296 0
0.0191724 -7.27097e-05 0
0.0195145 -0.000441125 0
0.019978 -0.000855577 0
0.020601 -0.00116653 0
0.0214215 -0.00122446 0
0.0222802 -0.00128947 0
0.0230175 -0.00162169 0
0.023744 -0.0017824 0
0.0245701 -0.00133292 0
0.0254378 -0.000634144 0
0.0262894 -4.69663e-05 0
0.02692 0.000869603 0
0.0271248 0.00255655 0
0.0203395 0.00295348 0
0 0 0
0 0 0
0.0202188 0.000583903 0
0.0269332 0.000540833 0
0.0267813 0.00068547 0
0.0264012 0.0018325 0
0.0259257 0.00300222 0
0.0254877 0.00321496 0
0.0248683 0.0030977 0
0.0238486 0.00327744 0
0.0226474 0.00341995 0
0.0214835 0.00319099 0
0.0203969 0.00275282 0
0.0194272 0.00226771 0
0.0187122 0.0017105 0
0.0183898 0.00105606 0
0.0183532 0.000376275 0
0.0184957 -0.000256934 0
0.018889 -0.000859708 0
0.0196051 -0.00144818 0
0.0205026 -0.00194068 0
0.0214401 -0.00225553 0
0.0225007 -0.00240921 0
0.0237671 -0.00241822 0
0.0250312 -0.00240503 0
0.0260847 -0.00249212 0
0.0272066 -0.0022383 0
0.028676 -0.00120237 0
0.0295583 0.000433133 0
0.0289191 0.0024857 0
0.0209893 0.00299483 0
0 0 0
0 0 0
0.0203423 0.00104991 0
0.026794 0.00156787 0
0.026053 0.00208182 0
0.0248174 0.00311969 0
0.0236768 0.00416501 0
0.0232207 0.00470133 0
0.0225382 0.00505939 0
0.0207187 0.00556995 0
0.0185285 0.00586698 0
0.0167339 0.00558443 0
0.0151688 0.00495082 0
0.0136672 0.00419468 0
0.0125457 0.0033258 0
0.0121209 0.00235398 0
0.0121177 0.00138042 0
0.0122608 0.000506343 0
0.0127771 -0.000334538 0
0.0138937 -0.0012085 0
0.0152359 -0.00191283 0
0.0164293 -0.00224482 0
0.0179156 -0.00241631 0
0.0201369 -0.00263909 0
0.022285 -0.00264924 0
0.0235514 -0.00218285 0
0.024999 -0.00166336 0
0.0276908 -0.00151425 0
0.0298946 -1.28106e-05 0
0.0298785 0.00456363 0
0.0218458 0.0064797 0
0 0 0
0 0 0
0.0200911 -0.00514292 0
0.02427 -0.000176183 0
0.0204569 0.00601313 0
0.0165721 0.00453792 0
0.0133868 0.00180326 0
0.0116727 0.00421421 0
0.00991727 0.00774532 0
0.00660809 0.00837113 0
0.00292491 0.00795261 0
4.74512e-05 0.00835075 0
-0.00225843 0.00857439 0
-0.00422691 0.00763239 0
-0.00566396 0.0062526 0
-0.00637555 0.00516288 0
-0.00653026 0.00425299 0
-0.00629665 0.00341273 0
-0.005448 0.00241436 0
-0.00375757 0.00103019 0
-0.00172193 0.000107988 0
0.000162396 0.00049553 0
0.00259157 0.000541461 0
0.00626176 -0.00140557 0
0.00960368 -0.00209409 0
0.011048 0.00172739 0
0.0129629 0.0045082 0
0.0177163 0.000697671 0
0.0232637 -0.000218531 0
0.0275608 0.0112453 0
0.0225066 0.0172609 0
0 0 0
0 0 0
0.0160105 -0.00822243 0
0.0187933 0.00166425 0
0.0142251 0.0130746 0
0.00818276 0.00942329 0
0.00239362 0.0031858 0
-0.00141482 0.00683776 0
-0.00494204 0.0126032 0
-0.00988752 0.0127061 0
-0.0149894 0.0110859 0
-0.0189859 0.0116821 0
-0.0221109 0.0123183 0
-0.0245983 0.0108179 0
-0.0264307 0.00860358 0
-0.0275908 0.00709792 0
-0.0280416 0.00591228 0
-0.0277463 0.004658 0
-0.0265789 0.00303362 0
-0.0244136 0.000737708 0
-0.0217006 -0.000883207 0
-0.0188903 -0.000482603 0
-0.0152735 -0.000845526 0
-0.0101413 -0.00475702 0
-0.00546525 -0.00654612 0
-0.00321688 -0.000541838 0
-7.92898e-05 0.00376544 0
0.00726441 -0.00311466 0
0.0156925 -0.00607919 0
0.0220832 0.00997478 0
0.0192484 0.0202627 0
0 0 0
0 0 0
0.00464571 0.00158354 0
0.00979564 0.0134448 0
0.0115896 0.0238616 0
0.00616723 0.0211119 0
-0.00196495 0.0155814 0
-0.00830057 0.0176561 0
-0.0139872 0.0210806 0
-0.0201723 0.0195999 0
-0.0260405 0.0166759 0
-0.0307764 0.0157708 0
-0.0346148 0.0148774 0
-0.0377902 0.0119883 0
-0.0402686 0.00849137 0
-0.042016 0.00577427 0
-0.0428675 0.00327659 0
-0.0426579 0.000437931 0
-0.0414082 -0.00283016 0
-0.0391393 -0.00661613 0
-0.0360298 -0.00989139 0
-0.0322587 -0.0116274 0
-0.0274818 -0.0138869 0
-0.0213552 -0.0187328 0
-0.0153744 -0.0218119 0
-0.011035 -0.018771 0
-0.00530515 -0.0164026 0
0.0048471 -0.0214993 0
0.0132077 -0.02349 0
0.0135626 -0.0118037 0
0.00834802 0.000409588 0
0 0 0
0 0 0
-0.00379579 0.0163047 0
0.00370717 0.0276137 0
0.0107537 0.033666 0
0.00558875 0.0342009 0
-0.00486855 0.0324855 0
-0.0136989 0.0317872 0
-0.0215062 0.0307302 0
-0.0288941 0.0279383 0
-0.0355138 0.0244759 0
-0.0410166 0.0214072 0
-0.0456143 0.0180452 0
-0.0495189 0.0137033 0
-0.0526465 0.00907529 0
-0.0549131 0.00485532 0
-0.0561136 0.000599788 0
-0.0560429 -0.00413485 0
-0.0548115 -0.00917994 0
-0.0525297 -0.0143668 0
-0.0490917 -0.0194336 0
-0.0443915 -0.0241184 0
-0.0384892 -0.0287188 0
-0.0314447 -0.0335324 0
-0.0240444 -0.0375242 0
-0.0170743 -0.039659 0
-0.00840118 -0.0406601 0
0.00410849 -0.0412507 0
0.0118857 -0.0400317 0
0.00636164 -0.0356039 0
-0.00131616 -0.0236868 0
0 0 0
0 0 0
0.000893343 0.0279708 0
0.0069579 0.0366193 0
0.00992116 0.0377801 0
0.00151059 0.0432874 0
-0.0114969 0.0473931 0
-0.0223243 0.0443491 0
-0.0317872 0.0391041 0
-0.040701 0.0366071 0
-0.0486951 0.0342393 0
-0.0553989 0.0293817 0
-0.0609537 0.0236156 0
-0.0655009 0.0185225 0
-0.0690333 0.0135146 0
-0.0715437 0.00800447 0
-0.0728858 0.00213576 0
-0.0729128 -0.00394774 0
-0.0716644 -0.0100187 0
-0.0691801 -0.0158498 0
-0.0652683 -0.0220268 0
-0.0597376 -0.0291352 0
-0.0527519 -0.0354774 0
-0.0444749 -0.0393555 0
-0.0353956 -0.0433158 0
-0.0260026 -0.0499047 0
-0.0150539 -0.053671 0
-0.00130729 -0.0491636 0
0.00780293 -0.0432854 0
0.00484261 -0.0429396 0
-0.000865831 -0.0334149 0
0 0 0
0 0 0
0.0100229 0.0347619 0
0.0126107 0.0428697 0
0.00758711 0.0425386 0
-0.00522421 0.0519838 0
-0.0206244 0.0601381 0
-0.0334146 0.0559343 0
-0.0446795 0.0482398 0
-0.0555036 0.0459222 0
-0.0652589 0.0440685 0
-0.0733172 0.037766 0
-0.0798656 0.0301291 0
-0.085091 0.0242725 0
-0.08902 0.0187186 0
-0.0916788 0.0119897 0
-0.0930654 0.00471644 0
-0.0931777 -0.00247063 0
-0.0918881 -0.00942708 0
-0.0890695 -0.0160085 0
-0.0846071 -0.0232403 0
-0.0783863 -0.032148 0
-0.0703786 -0.0399215 0
-0.0605557 -0.0437506 0
-0.0494541 -0.0480445 0
-0.0376107 -0.0572122 0
-0.0244756 -0.0624304 0
-0.00949876 -0.0548756 0
0.00246031 -0.0452823 0
0.00654209 -0.0443847 0
0.00497814 -0.0350136 0
0 0 0
0 0 0
0.0149027 0.0348583 0
0.0137285 0.0487729 0
0.00224684 0.0542765 0
-0.0137726 0.0639023 0
-0.0310256 0.070554 0
-0.0462078 0.0671354 0
-0.0600323 0.0601745 0
-0.0732125 0.0561992 0
-0.0848796 0.0520662 0
-0.0941651 0.0446318 0
-0.101582 0.0361263 0
-0.107644 0.0287801 0
-0.112198 0.0215965 0
-0.115089 0.0135791 0
-0.116534 0.00517375 0
-0.116748 -0.00317344 0
-0.115404 -0.0114857 0
-0.112177 -0.0197861 0
-0.107155 -0.0286435 0
-0.100427 -0.0386268 0
-0.0914783 -0.0478098 0
-0.0797968 -0.0542666 0
-0.066246 -0.0605681 0
-0.0516897 -0.0692856 0
-0.0358789 -0.0739331 0
-0.0185645 -0.0680248 0
-0.00264108 -0.0580538 0
0.00899661 -0.0505131 0
0.0114949 -0.0347221 0
0 0 0
0 0 0
0.0162115 0.0350023 0
0.011653 0.057265 0
-0.00449154 0.0707764 0
-0.0230383 0.0795249 0
-0.0420733 0.0829261 0
-0.0596825 0.0803959 0
-0.0759854 0.0745564 0
-0.0911014 0.0680297 0
-0.104166 0.0605103 0
-0.114316 0.0516926 0
-0.122311 0.0423147 0
-0.128915 0.033115 0
-0.133874 0.0239084 0
-0.136934 0.0145099 0
-0.138434 0.00496472 0
-0.138709 -0.00468155 0
-0.137348 -0.014605 0
-0.133937 -0.0249815 0
-0.128652 -0.035786 0
-0.121667 -0.0469929 0
-0.112109 -0.0579859 0
-0.0991059 -0.0681486 0
-0.0836438 -0.0773155 0
-0.0667095 -0.0853209 0
-0.0482279 -0.0893396 0
-0.0281234 -0.0865458 0
-0.00823724 -0.0771877 0
0.00958949 -0.0615132 0
0.0155906 -0.0367185 0
0 0 0
0 0 0
0.014628 0.041936 0
0.00772624 0.0712822 0
-0.0110199 0.0898206 0
-0.031925 0.0993333 0
-0.0531405 0.10154 0
-0.0728178 0.0981594 0
-0.0906786 0.091034 0
-0.106444 0.0820052 0
-0.119728 0.0716792 0
-0.130142 0.0606618 0
-0.138261 0.0494017 0
-0.144659 0.0383473 0
-0.149356 0.0274146 0
-0.152373 0.0165195 0
-0.153905 0.00554639 0
-0.154148 -0.00562037 0
-0.152856 -0.0171955 0
-0.149785 -0.0293937 0
-0.144837 -0.042217 0
-0.137915 -0.0556676 0
-0.12833 -0.0692933 0
-0.115391 -0.0826422 0
-0.0995201 -0.0947155 0
-0.0811404 -0.104514 0
-0.0604868 -0.10981 0
-0.0377946 -0.108373 0
-0.0150642 -0.0982719 0
0.00570407 -0.0775733 0
0.0141716 -0.0451813 0
0 0 0
0 0 0
0.0122272 0.0527425 0
0.00330099 0.0888973 0
-0.0173093 0.111035 0
-0.0401345 0.121728 0
-0.0630316 0.123261 0
-0.0838577 0.11792 0
-0.10214 0.108154 0
-0.117406 0.0964132 0
-0.129852 0.0834111 0
-0.139677 0.0698625 0
-0.147211 0.0563668 0
-0.152787 0.0435234 0
-0.156742 0.0310777 0
-0.159416 0.0187752 0
-0.160842 0.0064268 0
-0.161051 -0.00615627 0
-0.159988 -0.0192198 0
-0.157599 -0.0330096 0
-0.153488 -0.0477691 0
-0.147257 -0.0637417 0
-0.13849 -0.0802682 0
-0.126766 -0.0966896 0
-0.111766 -0.111947 0
-0.0931685 -0.124984 0
-0.0714254 -0.13282 0
-0.0469895 -0.132478 0
-0.0222791 -0.121433 0
0.000287842 -0.0971565 0
0.0109635 -0.0574217 0
0 0 0
0 0 0
0.0110838 0.0645048 0
-0.000269915 0.108183 0
-0.0233308 0.134047 0
-0.0473687 0.145108 0
-0.0705513 0.144954 0
-0.0910464 0.137171 0
-0.108398 0.124464 0
-0.12215 0.109541 0
-0.132828 0.0935446 0
-0.140954 0.0776176 0
-0.146943 0.0621895 0
-0.15121 0.04769 0
-0.15413 0.0338609 0
-0.156075 0.0204442 0
-0.157136 0.00711398 0
-0.157403 -0.00645564 0
-0.156802 -0.0206405 0
-0.15526 -0.0358165 0
-0.152384 -0.0522747 0
-0.147781 -0.0703062 0
-0.14094 -0.089447 0
-0.131349 -0.109233 0
-0.118274 -0.128191 0
-0.10098 -0.144846 0
-0.0798135 -0.155845 0
-0.0551199 -0.157831 0
-0.0290393 -0.146796 0
-0.00371169 -0.118726 0
0.00969182 -0.070751 0
0 0 0
0 0 0
0.0101207 0.0779874 0
-0.0032042 0.129291 0
-0.0279725 0.158094 0
-0.0521817 0.168582 0
-0.0742629 0.16578 0
-0.092647 0.154715 0
-0.107274 0.138479 0
-0.118082 0.120168 0
-0.125795 0.101248 0
-0.131131 0.0831864 0
-0.134686 0.0661651 0
-0.137051 0.0503643 0
-0.138533 0.0355361 0
-0.139436 0.0214321 0
-0.13995 0.00758152 0
-0.140266 -0.00648629 0
-0.140254 -0.0212989 0
-0.139783 -0.0373839 0
-0.138576 -0.0550555 0
-0.136356 -0.0746282 0
-0.132435 -0.0959551 0
-0.126125 -0.118889 0
-0.116457 -0.141675 0
-0.10246 -0.162554 0
-0.083916 -0.177676 0
-0.0606087 -0.183189 0
-0.0343497 -0.173346 0
-0.00695135 -0.142398 0
0.00877053 -0.0860487 0
0 0 0
0 0 0
0.00826098 0.0939547 0
-0.0057196 0.152371 0
-0.0301223 0.182416 0
-0.0531278 0.191255 0
-0.0727298 0.184899 0
-0.0869225 0.169355 0
-0.0965872 0.148715 0
-0.102605 0.127071 0
-0.105893 0.105688 0
-0.107369 0.0858285 0
-0.107668 0.0675886 0
-0.107431 0.0510638 0
-0.106967 0.0358753 0
-0.106587 0.0216443 0
-0.106447 0.00780303 0
-0.106704 -0.00621606 0
-0.107302 -0.0210364 0
-0.108185 -0.0372812 0
-0.109114 -0.0554332 0
-0.109851 -0.0759749 0
-0.109728 -0.0989181 0
-0.10808 -0.124274 0
-0.103726 -0.150627 0
-0.0954893 -0.176559 0
-0.0819976 -0.197107 0
-0.061879 -0.207308 0
-0.0372152 -0.200067 0
-0.010088 -0.16829 0
0.00661348 -0.104194 0
0 0 0
0 0 0
0.00699844 0.110722 0
-0.00709956 0.175442 0
-0.0298152 0.204972 0
-0.0486697 0.210125 0
-0.0623238 0.19856 0
-0.0694384 0.177933 0
-0.0718152 0.153022 0
-0.0712559 0.1286 0
-0.0688128 0.105513 0
-0.065538 0.0846096 0
-0.0619926 0.0659017 0
-0.058738 0.0494034 0
-0.0560595 0.034572 0
-0.0542426 0.0208647 0
-0.0533631 0.00765661 0
-0.0534965 -0.00567711 0
-0.0546926 -0.0198109 0
-0.0570009 -0.0354191 0
-0.0602492 -0.0531771 0
-0.0642651 -0.0737603 0
-0.0685464 -0.0973243 0
-0.0725909 -0.124025 0
-0.0751474 -0.153052 0
-0.074965 -0.183596 0
-0.0696 -0.210034 0
-0.0566086 -0.226739 0
-0.0370438 -0.224531 0
-0.0119587 -0.19423 0
0.00495369 -0.123499 0
0 0 0
0 0 0
0.00782699 0.126605 0
-0.00662751 0.19652 0
-0.0270859 0.223722 0
-0.0372706 0.222188 0
-0.0394168 0.203014 0
-0.0357601 0.177294 0
-0.0284338 0.149249 0
-0.0195712 0.123099 0
-0.010241 0.0993718 0
-0.00151201 0.0785954 0
0.00624024 0.0605455 0
0.0126401 0.044998 0
0.0175624 0.0313196 0
0.0208818 0.0188773 0
0.0225643 0.00702038 0
0.022576 -0.00490159 0
0.0208281 -0.0175804 0
0.0172319 -0.031708 0
0.0117639 -0.0480565 0
0.00440075 -0.0673982 0
-0.00461391 -0.0901618 0
-0.0150364 -0.116776 0
-0.0257859 -0.146953 0
-0.0357817 -0.180402 0
-0.0422646 -0.212353 0
-0.0424752 -0.238033 0
-0.0332438 -0.244309 0
-0.0114006 -0.218048 0
0.00552417 -0.142272 0
0 0 0
0 0 0
0.00890483 0.14396 0
-0.000686431 0.213859 0
-0.0118008 0.232196 0
-0.00746519 0.221472 0
0.00622239 0.194831 0
0.023164 0.165417 0
0.0414325 0.136178 0
0.0591005 0.110062 0
0.0753277 0.0872745 0
0.0892739 0.0680251 0
0.100866 0.0518167 0
0.110031 0.0381524 0
0.116866 0.0263818 0
0.121468 0.0158545 0
0.123846 0.00594327 0
0.124008 -0.00397919 0
0.12185 -0.0145716 0
0.117267 -0.0264926 0
0.110006 -0.0405118 0
0.0998149 -0.057399 0
0.0865825 -0.0778652 0
0.0701992 -0.102622 0
0.051315 -0.131823 0
0.03058 -0.165626 0
0.010289 -0.200986 0
-0.00726325 -0.234864 0
-0.0145152 -0.25191 0
-0.00390538 -0.236779 0
0.00684131 -0.161974 0
0 0 0
0 0 0
0.00839013 0.165142 0
0.0143407 0.225712 0
0.0261739 0.223927 0
0.0522116 0.202006 0
0.0848251 0.17058 0
0.116386 0.140283 0
0.145659 0.112592 0
0.171411 0.0889798 0
0.193399 0.0692333 0
0.211384 0.053138 0
0.22572 0.0400115 0
0.236761 0.0291714 0
0.244817 0.0200224 0
0.250197 0.0119691 0
0.252992 0.00447423 0
0.253294 -0.00299962 0
0.250962 -0.0110107 0
0.245858 -0.0201173 0
0.237559 -0.0309834 0
0.225645 -0.0442733 0
0.209556 -0.0608689 0
0.188731 -0.0816525 0
0.163112 -0.107157 0
0.132639 -0.137915 0
0.098341 -0.172855 0
0.0612429 -0.210905 0
0.030442 -0.239845 0
0.0150352 -0.247455 0
0.00742145 -0.184064 0
0 0 0
0 0 0
0.0310479 0.164014 0
0.0692005 0.209179 0
0.11355 0.190313 0
0.163187 0.162231 0
0.212384 0.131469 0
0.255416 0.104558 0
0.292205 0.0816714 0
0.322675 0.062978 0
0.347392 0.0479888 0
0.36692 0.0362146 0
0.382007 0.0269326 0
0.393402 0.0194203 0
0.401568 0.0132093 0
0.406967 0.00783159 0
0.409763 0.00288658 0
0.41012 -0.00202616 0
0.407872 -0.0073184 0
0.402855 -0.0134019 0
0.394558 -0.0207627 0
0.382475 -0.0298868 0
0.365681 -0.0416519 0
0.343249 -0.0569359 0
0.3143 -0.076435 0
0.277953 -0.100846 0
0.233613 -0.130662 0
0.180681 -0.166376 0
0.125649 -0.200851 0
0.0750075 -0.226948 0
0.0320325 -0.181165 0
0 0 0
2.77334e-30 0 0
0.101643 0.114439 0
0.19464 0.141361 0
0.277038 0.122751 0
0.346887 0.100592 0
0.404893 0.0787047 0
0.451764 0.0609071 0
0.489028 0.0465991 0
0.518211 0.0351803 0
0.540725 0.0262821 0
0.55798 0.0195358 0
0.570929 0.0143827 0
0.580523 0.0102642 0
0.58727 0.00691074 0
0.591677 0.00405256 0
0.59392 0.00145364 0
0.594173 -0.00112209 0
0.592286 -0.0039152 0
0.588108 -0.00716626 0
0.581142 -0.0111411 0
0.570889 -0.0161054 0
0.556329 -0.0226933 0
0.536442 -0.0315386 0
0.509576 -0.0431385 0
0.474079 -0.0579905 0
0.427825 -0.0771061 0
0.368688 -0.101497 0
0.295127 -0.127669 0
0.205598 -0.152127 0
0.105442 -0.125896 0
2.77334e-30 0 0
0.25 0 0
0.373514 0.0489297 0
0.476344 0.0592905 0
0.558551 0.0497957 0
0.620196 0.0391587 0
0.666161 0.0292333 0
0.701327 0.021873 0
0.727751 0.0163753 0
0.747494 0.0120375 0
0.762045 0.00874261 0
0.772897 0.00637353 0
0.780817 0.00464429 0
0.786573 0.00326892 0
0.790541 0.00216236 0
0.793098 0.00123953 0
0.794365 0.000412441 0
0.794463 -0.00040688 0
0.793298 -0.00130708 0
0.790772 -0.0023768 0
0.786544 -0.00369476 0
0.780269 -0.00533968 0
0.771202 -0.00760523 0
0.758597 -0.0107851 0
0.740841 -0.015062 0
0.716324 -0.0206188 0
0.68271 -0.0282114 0
0.637662 -0.0385956 0
0.574651 -0.0506133 0