<?xml version="1.0"?>
<VTKFile type="UnstructuredGrid">
  <UnstructuredGrid>
  <Piece NumberOfPoints="961"  NumberOfCells="225">
    <Points>
      <DataArray type="Float64" NumberOfComponents="3" format="ascii">
0 0 0
0.0333333 0 0
0.0666667 0 0
0.1 0 0
0.133333 0 0
0.166667 0 0
0.2 0 0
0.233333 0 0
0.266667 0 0
0.3 0 0
0.333333 0 0
0.366667 0 0
0.4 0 0
0.433333 0 0
0.466667 0 0
0.5 0 0
0.533333 0 0
0.566667 0 0
0.6 0 0
0.633333 0 0
0.666667 0 0
0.7 0 0
0.733333 0 0
0.766667 0 0
0.8 0 0
0.833333 0 0
0.866667 0 0
0.9 0 0
0.933333 0 0
0.966667 0 0
1 0 0
0 0.0333333 0
0.0333333 0.0333333 0
0.0666667 0.0333333 0
0.1 0.0333333 0
0.133333 0.0333333 0
0.166667 0.0333333 0
0.2 0.0333333 0
0.233333 0.0333333 0
0.266667 0.0333333 0
0.3 0.0333333 0
0.333333 0.0333333 0
0.366667 0.0333333 0
0.4 0.0333333 0
0.433333 0.0333333 0
0.466667 0.0333333 0
0.5 0.0333333 0
0.533333 0.0333333 0
0.566667 0.0333333 0
0.6 0.0333333 0
0.633333 0.0333333 0
0.666667 0.0333333 0
0.7 0.0333333 0
0.733333 0.0333333 0
0.766667 0.0333333 0
0.8 0.0333333 0
0.833333 0.0333333 0
0.866667 0.0333333 0
0.9 0.0333333 0
0.933333 0.0333333 0
0.966667 0.0333333 0
1 0.0333333 0
0 0.0666667 0
0.0333333 0.0666667 0
0.0666667 0.0666667 0
0.1 0.0666667 0
0.133333 0.0666667 0
0.166667 0.0666667 0
0.2 0.0666667 0
0.233333 0.0666667 0
0.266667 0.0666667 0
0.3 0.0666667 0
0.333333 0.0666667 0
0.366667 0.0666667 0
0.4 0.0666667 0
0.433333 0.0666667 0
0.466667 0.0666667 0
0.5 0.0666667 0
0.533333 0.0666667 0
0.566667 0.0666667 0
0.6 0.0666667 0
0.633333 0.0666667 0
0.666667 0.0666667 0
0.7 0.0666667 0
0.733333 0.0666667 0
0.766667 0.0666667 0
0.8 0.0666667 0
0.833333 0.0666667 0
0.866667 0.0666667 0
0.9 0.0666667 0
0.933333 0.0666667 0
0.966667 0.0666667 0
1 0.0666667 0
0 0.1 0
0.0333333 0.1 0
0.0666667 0.1 0
0.1 0.1 0
0.133333 0.1 0
0.166667 0.1 0
0.2 0.1 0
0.233333 0.1 0
0.266667 0.1 0
0.3 0.1 0
0.333333 0.1 0
0.366667 0.1 0
0.4 0.1 0
0.433333 0.1 0
0.466667 0.1 0
0.5 0.1 0
0.533333 0.1 0
0.566667 0.1 0
0.6 0.1 0
0.633333 0.1 0
0.666667 0.1 0
0.7 0.1 0
0.733333 0.1 0
0.766667 0.1 0
0.8 0.1 0
0.833333 0.1 0
0.866667 0.1 0
0.9 0.1 0
0.933333 0.1 0
0.966667 0.1 0
1 0.1 0
0 0.133333 0
0.0333333 0.133333 0
0.0666667 0.133333 0
0.1 0.133333 0
0.133333 0.133333 0
0.166667 0.133333 0
0.2 0.133333 0
0.233333 0.133333 0
0.266667 0.133333 0
0.3 0.133333 0
0.333333 0.133333 0
0.366667 0.133333 0
0.4 0.133333 0
0.433333 0.133333 0
0.466667 0.133333 0
0.5 0.133333 0
0.533333 0.133333 0
0.566667 0.133333 0
0.6 0.133333 0
0.633333 0.133333 0
0.666667 0.133333 0
0.7 0.133333 0
0.733333 0.133333 0
0.766667 0.133333 0
0.8 0.133333 0
0.833333 0.133333 0
0.866667 0.133333 0
0.9 0.133333 0
0.933333 0.133333 0
0.966667 0.133333 0
1 0.133333 0
0 0.166667 0
0.0333333 0.166667 0
0.0666667 0.166667 0
0.1 0.166667 0
0.133333 0.166667 0
0.166667 0.166667 0
0.2 0.166667 0
0.233333 0.166667 0
0.266667 0.166667 0
0.3 0.166667 0
0.333333 0.166667 0
0.366667 0.166667 0
0.4 0.166667 0
0.433333 0.166667 0
0.466667 0.166667 0
0.5 0.166667 0
0.533333 0.166667 0
0.566667 0.166667 0
0.6 0.166667 0
0.633333 0.166667 0
0.666667 0.166667 0
0.7 0.166667 0
0.733333 0.166667 0
0.766667 0.166667 0
0.8 0.166667 0
0.833333 0.166667 0
0.866667 0.166667 0
0.9 0.166667 0
0.933333 0.166667 0
0.966667 0.166667 0
1 0.166667 0
0 0.2 0
0.0333333 0.2 0
0.0666667 0.2 0
0.1 0.2 0
0.133333 0.2 0
0.166667 0.2 0
0.2 0.2 0
0.233333 0.2 0
0.266667 0.2 0
0.3 0.2 0
0.333333 0.2 0
0.366667 0.2 0
0.4 0.2 0
0.433333 0.2 0
0.466667 0.2 0
0.5 0.2 0
0.533333 0.2 0
0.566667 0.2 0
0.6 0.2 0
0.633333 0.2 0
0.666667 0.2 0
0.7 0.2 0
0.733333 0.2 0
0.766667 0.2 0
0.8 0.2 0
0.833333 0.2 0
0.866667 0.2 0
0.9 0.2 0
0.933333 0.2 0
0.966667 0.2 0
1 0.2 0
0 0.233333 0
0.0333333 0.233333 0
0.0666667 0.233333 0
0.1 0.233333 0
0.133333 0.233333 0
0.166667 0.233333 0
0.2 0.233333 0
0.233333 0.233333 0
0.266667 0.233333 0
0.3 0.233333 0
0.333333 0.233333 0
0.366667 0.233333 0
0.4 0.233333 0
0.433333 0.233333 0
0.466667 0.233333 0
0.5 0.233333 0
0.533333 0.233333 0
0.566667 0.233333 0
0.6 0.233333 0
0.633333 0.233333 0
0.666667 0.233333 0
0.7 0.233333 0
0.733333 0.233333 0
0.766667 0.233333 0
0.8 0.233333 0
0.833333 0.233333 0
0.866667 0.233333 0
0.9 0.233333 0
0.933333 0.233333 0
0.966667 0.233333 0
1 0.233333 0
0 0.266667 0
0.0333333 0.266667 0
0.0666667 0.266667 0
0.1 0.266667 0
0.133333 0.266667 0
0.166667 0.266667 0
0.2 0.266667 0
0.233333 0.266667 0
0.266667 0.266667 0
0.3 0.266667 0
0.333333 0.266667 0
0.366667 0.266667 0
0.4 0.266667 0
0.433333 0.266667 0
0.466667 0.266667 0
0.5 0.266667 0
0.533333 0.266667 0
0.566667 0.266667 0
0.6 0.266667 0
0.633333 0.266667 0
0.666667 0.266667 0
0.7 0.266667 0
0.733333 0.266667 0
0.766667 0.266667 0
0.8 0.266667 0
0.833333 0.266667 0
0.866667 0.266667 0
0.9 0.266667 0
0.933333 0.266667 0
0.966667 0.266667 0
1 0.266667 0
0 0.3 0
0.0333333 0.3 0
0.0666667 0.3 0
0.1 0.3 0
0.133333 0.3 0
0.166667 0.3 0
0.2 0.3 0
0.233333 0.3 0
0.266667 0.3 0
0.3 0.3 0
0.333333 0.3 0
0.366667 0.3 0
0.4 0.3 0
0.433333 0.3 0
0.466667 0.3 0
0.5 0.3 0
0.533333 0.3 0
0.566667 0.3 0
0.6 0.3 0
0.633333 0.3 0
0.666667 0.3 0
0.7 0.3 0
0.733333 0.3 0
0.766667 0.3 0
0.8 0.3 0
0.833333 0.3 0
0.866667 0.3 0
0.9 0.3 0
0.933333 0.3 0
0.966667 0.3 0
1 0.3 0
0 0.333333 0
0.0333333 0.333333 0
0.0666667 0.333333 0
0.1 0.333333 0
0.133333 0.333333 0
0.166667 0.333333 0
0.2 0.333333 0
0.233333 0.333333 0
0.266667 0.333333 0
0.3 0.333333 0
0.333333 0.333333 0
0.366667 0.333333 0
0.4 0.333333 0
0.433333 0.333333 0
0.466667 0.333333 0
0.5 0.333333 0
0.533333 0.333333 0
0.566667 0.333333 0
0.6 0.333333 0
0.633333 0.333333 0
0.666667 0.333333 0
0.7 0.333333 0
0.733333 0.333333 0
0.766667 0.333333 0
0.8 0.333333 0
0.833333 0.333333 0
0.866667 0.333333 0
0.9 0.333333 0
0.933333 0.333333 0
0.966667 0.333333 0
1 0.333333 0
0 0.366667 0
0.0333333 0.366667 0
0.0666667 0.366667 0
0.1 0.366667 0
0.133333 0.366667 0
0.166667 0.366667 0
0.2 0.366667 0
0.233333 0.366667 0
0.266667 0.366667 0
0.3 0.366667 0
0.333333 0.366667 0
0.366667 0.366667 0
0.4 0.366667 0
0.433333 0.366667 0
0.466667 0.366667 0
0.5 0.366667 0
0.533333 0.366667 0
0.566667 0.366667 0
0.6 0.366667 0
0.633333 0.366667 0
0.666667 0.366667 0
0.7 0.366667 0
0.733333 0.366667 0
0.766667 0.366667 0
0.8 0.366667 0
0.833333 0.366667 0
0.866667 0.366667 0
0.9 0.366667 0
0.933333 0.366667 0
0.966667 0.366667 0
1 0.366667 0
0 0.4 0
0.0333333 0.4 0
0.0666667 0.4 0
0.1 0.4 0
0.133333 0.4 0
0.166667 0.4 0
0.2 0.4 0
0.233333 0.4 0
0.266667 0.4 0
0.3 0.4 0
0.333333 0.4 0
0.366667 0.4 0
0.4 0.4 0
0.433333 0.4 0
0.466667 0.4 0
0.5 0.4 0
0.533333 0.4 0
0.566667 0.4 0
0.6 0.4 0
0.633333 0.4 0
0.666667 0.4 0
0.7 0.4 0
0.733333 0.4 0
0.766667 0.4 0
0.8 0.4 0
0.833333 0.4 0
0.866667 0.4 0
0.9 0.4 0
0.933333 0.4 0
0.966667 0.4 0
1 0.4 0
0 0.433333 0
0.0333333 0.433333 0
0.0666667 0.433333 0
0.1 0.433333 0
0.133333 0.433333 0
0.166667 0.433333 0
0.2 0.433333 0
0.233333 0.433333 0
0.266667 0.433333 0
0.3 0.433333 0
0.333333 0.433333 0
0.366667 0.433333 0
0.4 0.433333 0
0.433333 0.433333 0
0.466667 0.433333 0
0.5 0.433333 0
0.533333 0.433333 0
0.566667 0.433333 0
0.6 0.433333 0
0.633333 0.433333 0
0.666667 0.433333 0
0.7 0.433333 0
0.733333 0.433333 0
0.766667 0.433333 0
0.8 0.433333 0
0.833333 0.433333 0
0.866667 0.433333 0
0.9 0.433333 0
0.933333 0.433333 0
0.966667 0.433333 0
1 0.433333 0
0 0.466667 0
0.0333333 0.466667 0
0.0666667 0.466667 0
0.1 0.466667 0
0.133333 0.466667 0
0.166667 0.466667 0
0.2 0.466667 0
0.233333 0.466667 0
0.266667 0.466667 0
0.3 0.466667 0
0.333333 0.466667 0
0.366667 0.466667 0
0.4 0.466667 0
0.433333 0.466667 0
0.466667 0.466667 0
0.5 0.466667 0
0.533333 0.466667 0
0.566667 0.466667 0
0.6 0.466667 0
0.633333 0.466667 0
0.666667 0.466667 0
0.7 0.466667 0
0.733333 0.466667 0
0.766667 0.466667 0
0.8 0.466667 0
0.833333 0.466667 0
0.866667 0.466667 0
0.9 0.466667 0
0.933333 0.466667 0
0.966667 0.466667 0
1 0.466667 0
0 0.5 0
0.0333333 0.5 0
0.0666667 0.5 0
0.1 0.5 0
0.133333 0.5 0
0.166667 0.5 0
0.2 0.5 0
0.233333 0.5 0
0.266667 0.5 0
0.3 0.5 0
0.333333 0.5 0
0.366667 0.5 0
0.4 0.5 0
0.433333 0.5 0
0.466667 0.5 0
0.5 0.5 0
0.533333 0.5 0
0.566667 0.5 0
0.6 0.5 0
0.633333 0.5 0
0.666667 0.5 0
0.7 0.5 0
0.733333 0.5 0
0.766667 0.5 0
0.8 0.5 0
0.833333 0.5 0
0.866667 0.5 0
0.9 0.5 0
0.933333 0.5 0
0.966667 0.5 0
1 0.5 0
0 0.533333 0
0.0333333 0.533333 0
0.0666667 0.533333 0
0.1 0.533333 0
0.133333 0.533333 0
0.166667 0.533333 0
0.2 0.533333 0
0.233333 0.533333 0
0.266667 0.533333 0
0.3 0.533333 0
0.333333 0.533333 0
0.366667 0.533333 0
0.4 0.533333 0
0.433333 0.533333 0
0.466667 0.533333 0
0.5 0.533333 0
0.533333 0.533333 0
0.566667 0.533333 0
0.6 0.533333 0
0.633333 0.533333 0
0.666667 0.533333 0
0.7 0.533333 0
0.733333 0.533333 0
0.766667 0.533333 0
0.8 0.533333 0
0.833333 0.533333 0
0.866667 0.533333 0
0.9 0.533333 0
0.933333 0.533333 0
0.966667 0.533333 0
1 0.533333 0
0 0.566667 0
0.0333333 0.566667 0
0.0666667 0.566667 0
0.1 0.566667 0
0.133333 0.566667 0
0.166667 0.566667 0
0.2 0.566667 0
0.233333 0.566667 0
0.266667 0.566667 0
0.3 0.566667 0
0.333333 0.566667 0
0.366667 0.566667 0
0.4 0.566667 0
0.433333 0.566667 0
0.466667 0.566667 0
0.5 0.566667 0
0.533333 0.566667 0
0.566667 0.566667 0
0.6 0.566667 0
0.633333 0.566667 0
0.666667 0.566667 0
0.7 0.566667 0
0.733333 0.566667 0
0.766667 0.566667 0
0.8 0.566667 0
0.833333 0.566667 0
0.866667 0.566667 0
0.9 0.566667 0
0.933333 0.566667 0
0.966667 0.566667 0
1 0.566667 0
0 0.6 0
0.0333333 0.6 0
0.0666667 0.6 0
0.1 0.6 0
0.133333 0.6 0
0.166667 0.6 0
0.2 0.6 0
0.233333 0.6 0
0.266667 0.6 0
0.3 0.6 0
0.333333 0.6 0
0.366667 0.6 0
0.4 0.6 0
0.433333 0.6 0
0.466667 0.6 0
0.5 0.6 0
0.533333 0.6 0
0.566667 0.6 0
0.6 0.6 0
0.633333 0.6 0
0.666667 0.6 0
0.7 0.6 0
0.733333 0.6 0
0.766667 0.6 0
0.8 0.6 0
0.833333 0.6 0
0.866667 0.6 0
0.9 0.6 0
0.933333 0.6 0
0.966667 0.6 0
1 0.6 0
0 0.633333 0
0.0333333 0.633333 0
0.0666667 0.633333 0
0.1 0.633333 0
0.133333 0.633333 0
0.166667 0.633333 0
0.2 0.633333 0
0.233333 0.633333 0
0.266667 0.633333 0
[...]
    <PointData>
      <DataArray type="Float64" NumberOfComponents="3" Name="Velocity" format="ascii">
0 0 0
0 0 0
0 0 0
0 0 0
0 0 0
0 0 0
0 0 0
0 0 0
0 0 0
0 0 0
0 0 0
0 0 0
0 0 0
0 0 0
0 0 0
0 0 0
0 0 0
0 0 0
0 0 0
0 0 0
0 0 0
0 0 0
0 0 0
0 0 0
0 0 0
0 0 0
0 0 0
0 0 0
0 0 0
0 0 0
0 0 0
0 0 0
0.00441042 -0.00464271 0
0.010301 -0.00535325 0
0.0159393 -0.00410729 0
0.0195928 -0.00288044 0
0.0214736 -0.00177886 0
0.0217937 -0.000908705 0
0.0212688 -0.000347892 0
0.0206144 -0.000174341 0
0.0198859 -0.000149907 0
0.019139 -3.64477e-05 0
0.0183672 0.000114212 0
0.0175641 0.000250244 0
0.0167102 0.000389415 0
0.0157859 0.000549489 0
0.0147884 0.000708222 0
0.0137148 0.000843372 0
0.0126443 0.000925037 0
0.0116561 0.000923313 0
0.0108685 0.000844988 0
0.0103997 0.000696851 0
0.0103663 0.000450771 0
0.0108847 7.86217e-05 0
0.0119041 -0.000172913 0
0.0133737 -5.71468e-05 0
0.0145105 0.00047073 0
0.0145318 0.00145553 0
0.0127878 0.00278221 0
0.00862887 0.00433575 0
0.00378846 0.00408529 0
0 0 0
0 0 0
0.00413834 -0.00955127 0
0.0108868 -0.0110734 0
0.0170812 -0.00812207 0
0.0195576 -0.00425277 0
0.0192879 -0.000705148 0
0.0172441 0.00128118 0
0.0142474 0.00215722 0
0.0111184 0.00237396 0
0.00802633 0.00227568 0
0.00514009 0.00220663 0
0.00250252 0.00215566 0
0.000156454 0.00211159 0
-0.00195328 0.0020994 0
-0.00388185 0.0021441 0
-0.00560383 0.00217678 0
-0.0070938 0.00212857 0
-0.00826035 0.00193079 0
-0.00901205 0.00151478 0
-0.00916376 0.000867944 0
-0.00853033 -2.23171e-05 0
-0.00698015 -0.00112249 0
-0.00438161 -0.00239905 0
-0.000870191 -0.00339684 0
0.00341866 -0.00366068 0
0.00752459 -0.00257006 0
0.0104872 0.000495529 0
0.0110136 0.00447242 0
0.00781071 0.00829696 0
0.00332426 0.0080969 0
0 0 0
0 0 0
0.00226232 -0.0144517 0
0.00655638 -0.0162393 0
0.00979714 -0.0108966 0
0.00889956 -0.00395713 0
0.00523359 0.00226685 0
0.000169191 0.00546301 0
-0.00564994 0.00665502 0
-0.0115801 0.00686652 0
-0.0172929 0.00651715 0
-0.0224599 0.00602653 0
-0.0270139 0.00549512 0
-0.0308878 0.00502335 0
-0.0341332 0.00461545 0
-0.0368017 0.00427561 0
-0.0388479 0.00389981 0
-0.0402263 0.00338402 0
-0.0408669 0.00262038 0
-0.0406999 0.001501 0
-0.039547 -2.45716e-05 0
-0.0372298 -0.0020068 0
-0.0336408 -0.00430266 0
-0.0286721 -0.0067691 0
-0.0225544 -0.008758 0
-0.0155182 -0.0096212 0
-0.00836418 -0.00809615 0
-0.00189308 -0.00292025 0
0.00232784 0.00399657 0
0.0027313 0.0107444 0
0.00129584 0.01139 0
0 0 0
0 0 0
0.00186092 -0.0190699 0
0.00210894 -0.0199298 0
0.000458479 -0.0112832 0
-0.00337601 -0.00183363 0
-0.00889855 0.00618284 0
-0.0156132 0.0105301 0
-0.0230085 0.0122852 0
-0.0305733 0.012525 0
-0.0377857 0.0118149 0
-0.044124 0.0107205 0
-0.0496019 0.00950334 0
-0.0542334 0.00842487 0
-0.0579722 0.00742305 0
-0.060772 0.00643581 0
-0.062615 0.00537142 0
-0.0634832 0.00413814 0
-0.0633285 0.00259689 0
-0.062103 0.000608556 0
-0.0597313 -0.001926 0
-0.0561384 -0.00510591 0
-0.051217 -0.00867263 0
-0.0448599 -0.0123676 0
-0.0373799 -0.0153426 0
-0.02909 -0.0167493 0
-0.0205622 -0.0150813 0
-0.0123687 -0.00883207 0
-0.00561918 0.000280612 0
-0.00142358 0.0105389 0
0.000391648 0.0133197 0
0 0 0
0 0 0
0.00150159 -0.0207134 0
-0.000189125 -0.020204 0
-0.00381381 -0.00901334 0
-0.00811409 0.00231729 0
-0.0134673 0.0117335 0
-0.0202506 0.0171808 0
-0.0278281 0.0195201 0
-0.0355638 0.0196123 0
-0.0429188 0.0182991 0
-0.049354 0.0164223 0
-0.0548778 0.0143282 0
-0.0594984 0.0123632 0
-0.0630884 0.010443 0
-0.0655201 0.00848341 0
-0.0668061 0.00641508 0
-0.0669586 0.00416879 0
-0.0659679 0.00160038 0
-0.0638238 -0.00143428 0
-0.0605941 -0.00505388 0
-0.0563466 -0.00937707 0
-0.0510483 -0.0140924 0
-0.0446666 -0.0188884 0
-0.0375129 -0.022684 0
-0.0298991 -0.0243984 0
-0.0222948 -0.0225262 0
-0.0151699 -0.0155619 0
-0.00880477 -0.00494061 0
-0.00348014 0.007903 0
-0.000207902 0.0129046 0
0 0 0
0 0 0
-0.000248242 -0.0166893 0
0.00192861 -0.015121 0
0.00410124 -0.00381848 0
0.00384035 0.00869522 0
0.00116872 0.0196093 0
-0.00389086 0.0261131 0
-0.0101085 0.028832 0
-0.0162543 0.0283915 0
-0.0221585 0.0261 0
-0.0276517 0.0232655 0
-0.0324578 0.0201176 0
-0.0363011 0.0168855 0
-0.0391 0.0135963 0
-0.0407733 0.0102771 0
-0.0413219 0.00685425 0
-0.0407468 0.0032538 0
-0.0391079 -0.000629082 0
-0.0364649 -0.00489925 0
-0.0330123 -0.00962577 0
-0.0289445 -0.0148777 0
-0.0244741 -0.0204219 0
-0.0198138 -0.0260252 0
-0.0151197 -0.0303158 0
-0.0105479 -0.0319219 0
-0.00678731 -0.0294313 0
-0.00452696 -0.0214319 0
-0.00320624 -0.00993225 0
-0.00226459 0.00305921 0
-0.00132239 0.00916309 0
0 0 0
0 0 0
-0.00138861 -0.0168458 0
0.00496458 -0.0161725 0
0.0130273 -0.00494153 0
0.0167672 0.0098856 0
0.0169747 0.0235344 0
0.0144398 0.0312304 0
0.0105634 0.0342016 0
0.00674634 0.0336759 0
0.00288052 0.0310383 0
-0.00114201 0.0276736 0
-0.00480252 0.0237901 0
-0.00758231 0.0195958 0
-0.00944788 0.015229 0
-0.0103657 0.0108274 0
-0.0103132 0.00633287 0
-0.00926797 0.00168731 0
-0.00735647 -0.00315939 0
-0.00470535 -0.0082573 0
-0.00157734 -0.0135962 0
0.0017648 -0.019166 0
0.00487069 -0.0248013 0
0.00728994 -0.0303369 0
0.00902192 -0.0343815 0
0.010066 -0.0355435 0
0.00976724 -0.0322006 0
0.00747067 -0.0227302 0
0.00392591 -0.0103708 0
-0.000117388 0.00163938 0
-0.00223433 0.00714734 0
0 0 0
0 0 0
8.04499e-05 -0.031031 0
0.00542125 -0.0348499 0
0.0117881 -0.0216254 0
0.0149465 -0.00152615 0
0.0159158 0.0172327 0
0.0157151 0.026436 0
0.0146007 0.0296095 0
0.0128289 0.0302786 0
0.0105839 0.0289349 0
0.00805015 0.0260698 0
0.0056277 0.0222641 0
0.00371674 0.0180986 0
0.00242703 0.0136873 0
0.00186836 0.00914447 0
0.00206907 0.0044949 0
0.00305754 -0.000236524 0
0.00467829 -0.00505842 0
0.00677585 -0.00997939 0
0.00911948 -0.0149198 0
0.0114784 -0.0197999 0
0.0133512 -0.0243706 0
0.0142363 -0.0283824 0
0.0141341 -0.0310248 0
0.0130449 -0.0314872 0
0.0111757 -0.0272379 0
0.00873363 -0.0157452 0
0.00534122 -0.00193283 0
0.000621039 0.00927536 0
-0.00222625 0.0119096 0
0 0 0
0 0 0
0.00364938 -0.0401353 0
0.00617552 -0.0460682 0
0.0074144 -0.0310102 0
0.007202 -0.00817265 0
0.00658579 0.0127959 0
0.00661324 0.022247 0
0.00641572 0.0251833 0
0.00512461 0.026607 0
0.00326117 0.0262407 0
0.00134667 0.0238068 0
-0.000477925 0.0201566 0
-0.00207168 0.0161415 0
-0.00324473 0.0118351 0
-0.00380719 0.00731077 0
-0.00374451 0.00266187 0
-0.00304213 -0.00201835 0
-0.00182971 -0.00669165 0
-0.000236907 -0.0113198 0
0.0015619 -0.0157964 0
0.00339233 -0.0200152 0
0.00486499 -0.0235949 0
0.00559049 -0.0261543 0
0.00545862 -0.0275708 0
0.00435916 -0.027722 0
0.00334915 -0.0234207 0
0.00348564 -0.0114798 0
0.00334627 0.00265337 0
0.00150868 0.0135317 0
-0.000211844 0.0147742 0
0 0 0
0 0 0
0.00880863 -0.0250492 0
0.0101043 -0.0247423 0
0.00693726 -0.0102359 0
0.00235748 0.00731345 0
-0.00242186 0.0223156 0
-0.00618767 0.0291805 0
-0.00957905 0.0310506 0
-0.0132352 0.0310686 0
-0.0167782 0.0294066 0
-0.0198305 0.0262372 0
-0.0224302 0.0220844 0
-0.0246153 0.0174726 0
-0.0262326 0.0125359 0
-0.0271284 0.00740855 0
-0.0273236 0.00215533 0
-0.0268389 -0.0031588 0
-0.0257066 -0.00842456 0
-0.0239592 -0.0135327 0
-0.0217663 -0.0184259 0
-0.0192974 -0.0230471 0
-0.0166902 -0.0269392 0
-0.0140823 -0.0296453 0
-0.0117627 -0.0313447 0
-0.0100208 -0.0322169 0
-0.00780141 -0.0296263 0
-0.00404963 -0.0209373 0
0.000247648 -0.00934059 0
0.00410352 0.00197297 0
0.00489522 0.00706572 0
0 0 0
0 0 0
0.0104729 -0.00119897 0
0.0103726 0.00817407 0
0.00417068 0.0211586 0
-0.00366083 0.0307939 0
-0.0119856 0.0372443 0
-0.0196671 0.0406739 0
-0.0266924 0.0412376 0
-0.0330483 0.0390902 0
-0.038591 0.0352763 0
-0.043177 0.0308404 0
-0.0469157 0.0257994 0
-0.0499165 0.0201703 0
-0.0521021 0.0141888 0
-0.0533953 0.00809072 0
-0.0538437 0.00187644 0
-0.0534953 -0.00445364 0
-0.0522943 -0.0107314 0
-0.0501849 -0.0167886 0
-0.0473192 -0.0226128 0
-0.0438492 -0.0281914 0
-0.0397144 -0.0330701 0
-0.0348538 -0.0367944 0
-0.0296491 -0.0395115 0
-0.0244823 -0.0413688 0
-0.0188041 -0.040787 0
-0.0120657 -0.0361867 0
-0.00436776 -0.0278724 0
0.00418875 -0.0161486 0
0.00763447 -0.00539712 0
0 0 0
0 0 0
0.0035571 0.0159891 0
0.000145015 0.0317273 0
-0.00707126 0.0436344 0
-0.0149267 0.0481304 0
-0.0229838 0.0490341 0
-0.0308047 0.0501646 0
-0.0382331 0.04977 0
-0.0451125 0.0460987 0
-0.051234 0.0406932 0
-0.0563883 0.0350958 0
-0.060621 0.0290535 0
-0.0639774 0.022313 0
-0.0664191 0.0151925 0
-0.0679077 0.00801019 0
-0.0684803 0.000726388 0
-0.0681742 -0.00669861 0
-0.0669348 -0.0140862 0
-0.0647077 -0.0212579 0
-0.0615507 -0.0281612 0
-0.0575214 -0.0347438 0
-0.0526074 -0.0406541 0
-0.0467958 -0.0455408 0
-0.0403199 -0.0492367 0
-0.0334128 -0.0515749 0
-0.0261872 -0.0518351 0
-0.018756 -0.0492974 0
-0.0109131 -0.0428999 0
-0.00245242 -0.0315807 0
0.00254546 -0.0167955 0
0 0 0
0 0 0
-0.00452508 0.0258623 0
-0.0108352 0.045282 0
-0.0179655 0.0570063 0
-0.0249512 0.0597826 0
-0.0319233 0.0586236 0
-0.039013 0.0585423 0
-0.0460358 0.0572987 0
-0.0528075 0.0526534 0
-0.0590324 0.0462148 0
-0.0644153 0.0395917 0
-0.0689009 0.0325139 0
-0.0724341 0.0247113 0
-0.0750089 0.0165201 0
-0.0766192 0.00827643 0
-0.0772772 -6.1243e-05 0
-0.076995 -0.00853459 0
-0.0757477 -0.0169927 0
-0.0735106 -0.0252846 0
-0.0702411 -0.0332918 0
-0.0658965 -0.040896 0
-0.0605639 -0.047846 0
-0.05433 -0.0538904 0
-0.0472465 -0.0585128 0
-0.0393651 -0.0611965 0
-0.031317 -0.0616697 0
-0.0237334 -0.0596607 0
-0.0165607 -0.0537385 0
-0.00974493 -0.0424723 0
-0.00399009 -0.0248851 0
0 0 0
0 0 0
-0.00635976 0.0277681 0
-0.0128251 0.0482029 0
-0.0196892 0.0610888 0
-0.0272452 0.0662101 0
-0.035311 0.0669512 0
-0.0437046 0.0666965 0
-0.0519354 0.0644744 0
-0.0595126 0.0593132 0
-0.0663117 0.0523987 0
-0.0722085 0.0449163 0
-0.0771099 0.0368481 0
-0.0809227 0.0281759 0
-0.0836972 0.0191446 0
-0.0854835 0.0099989 0
-0.0862781 0.000747141 0
-0.0860773 -0.00860242 0
-0.0848529 -0.0179542 0
-0.0825765 -0.0272124 0
-0.0791705 -0.0362251 0
-0.074557 -0.04484 0
-0.0687786 -0.0528004 0
-0.0618778 -0.0598494 0
-0.0539004 -0.0653325 0
-0.0448921 -0.0685953 0
-0.0355599 -0.0691897 0
-0.0266109 -0.0666679 0
-0.0184829 -0.0597041 0
-0.0116137 -0.0469726 0
-0.00559045 -0.0274217 0
0 0 0
0 0 0
-0.00519973 0.0279925 0
-0.0113562 0.0491656 0
-0.0188407 0.0638499 0
-0.0280244 0.0723762 0
-0.0381828 0.0759406 0
-0.048591 0.0757391 0
-0.0585059 0.0724287 0
-0.0671845 0.0666661 0
-0.0747013 0.0591959 0
-0.0811308 0.0507625 0
-0.0864087 0.0416237 0
-0.0904706 0.0320375 0
-0.0934199 0.0221478 0
-0.0953596 0.0120984 0
-0.0962848 0.00193483 0
-0.0961905 -0.0082975 0
-0.0950308 -0.0185613 0
-0.0927598 -0.0288192 0
-0.0892803 -0.0389108 0
-0.084495 -0.0486756 0
-0.0783464 -0.0578047 0
-0.0707767 -0.0659893 0
-0.0618618 -0.0725078 0
-0.0516775 -0.0766387 0
-0.0408179 -0.0774882 0
-0.0298774 -0.0741627 0
-0.0197749 -0.0655924 0
-0.0114291 -0.0507076 0
-0.00483821 -0.0290097 0
0 0 0
0 0 0
-0.00429777 0.0328218 0
-0.0119601 0.0568455 0
-0.0220185 0.0732576 0
-0.0335048 0.0832443 0
-0.0455745 0.0875157 0
-0.0573831 0.0867819 0
-0.0683215 0.0822933 0
-0.0777801 0.0752999 0
-0.0858307 0.0665579 0
-0.0925449 0.0568231 0
-0.097958 0.0464085 0
-0.102105 0.0356268 0
-0.105113 0.0246115 0
-0.107106 0.0134958 0
-0.108099 0.0022851 0
-0.108104 -0.00901522 0
-0.107062 -0.0204046 0
-0.104915 -0.0318824 0
-0.101512 -0.0432985 0
-0.0967028 -0.0545024 0
-0.0903623 -0.0651463 0
-0.0823643 -0.074882 0
-0.0727111 -0.082851 0
-0.0614051 -0.0881943 0
-0.0489931 -0.0896582 0
-0.0360222 -0.0859888 0
-0.0235319 -0.0761995 0
-0.0125615 -0.0593038 0
-0.00431597 -0.0342533 0
0 0 0
0 0 0
-0.00414539 0.0398938 0
-0.0138927 0.0680773 0
-0.0268931 0.0864639 0
-0.0407973 0.0969668 0
-0.0546602 0.100754 0
-0.0675367 0.0989931 0
-0.0791039 0.0930999 0
-0.0890391 0.08449 0
-0.0973592 0.0740956 0
-0.104081 0.0628489 0
-0.109373 0.0510491 0
-0.113403 0.0389951 0
-0.116315 0.0268169 0
-0.118253 0.0146445 0
-0.119258 0.00241384 0
-0.11937 -0.00993929 0
-0.118518 -0.0224541 0
-0.116631 -0.03517 0
-0.113502 -0.0479763 0
-0.108923 -0.0607623 0
-0.102684 -0.0731421 0
-0.0945737 -0.0847294 0
-0.0844878 -0.0945202 0
-0.0723232 -0.10151 0
-0.0585331 -0.104092 0
-0.0435705 -0.100656 0
-0.0285986 -0.0899895 0
-0.0147804 -0.0708793 0
-0.00446455 -0.0414934 0
0 0 0
0 0 0
-0.00523408 0.0468467 0
-0.0164102 0.0796955 0
-0.0311345 0.100621 0
-0.0470129 0.111696 0
-0.0626142 0.114733 0
-0.0765071 0.111541 0
-0.0885751 0.10388 0
-0.0987016 0.0935117 0
-0.106947 0.0814201 0
-0.11337 0.0685907 0
-0.118268 0.0553923 0
-0.121938 0.0421937 0
-0.124563 0.0290455 0
-0.126329 0.0159982 0
-0.127301 0.00293689 0
-0.127542 -0.0102534 0
-0.126969 -0.0236799 0
-0.125498 -0.0374498 0
-0.122888 -0.0515324 0
-0.1189 -0.0658973 0
-0.113171 -0.0801093 0
-0.105338 -0.0937333 0
-0.0952314 -0.105674 0
-0.0826803 -0.114835 0
-0.0678856 -0.11918 0
-0.0510478 -0.116673 0
-0.0338199 -0.105427 0
-0.0178552 -0.0835525 0
-0.00572475 -0.0490704 0
0 0 0
0 0 0
-0.00672235 0.0547842 0
-0.0194601 0.0928813 0
-0.0357929 0.116501 0
-0.0533002 0.127851 0
-0.0702186 0.129619 0
-0.0847846 0.12449 0
-0.096968 0.114624 0
-0.106739 0.102182 0
-0.114335 0.0882059 0
-0.119995 0.0737367 0
-0.124119 0.0591849 0
-0.12711 0.0449608 0
-0.129206 0.0310124 0
-0.130643 0.017288 0
-0.131507 0.00361396 0
-0.131884 -0.0101834 0
-0.131683 -0.0242982 0
-0.130811 -0.0389246 0
-0.129002 -0.0541325 0
-0.125991 -0.069992 0
-0.12127 -0.086078 0
-0.114333 -0.101965 0
-0.104841 -0.116451 0
-0.0924544 -0.128331 0
-0.0771533 -0.135121 0
-0.0589188 -0.134333 0
-0.0397368 -0.123032 0
-0.0215931 -0.09828 0
-0.00738257 -0.0579716 0
0 0 0
0 0 0
-0.00776867 0.0648098 0
-0.02299 0.108816 0
-0.0419183 0.134876 0
-0.0608078 0.14585 0
-0.0782558 0.145579 0
-0.0928593 0.137906 0
-0.104516 0.125322 0
-0.113123 0.11032 0
-0.119267 0.0941273 0
-0.123538 0.0779751 0
-0.1264 0.0621738 0
-0.128319 0.0470344 0
-0.129588 0.0324328 0
-0.130501 0.0182451 0
-0.131158 0.00420473 0
-0.131661 -0.00995493 0
-0.131924 -0.0245252 0
-0.131864 -0.0397972 0
-0.131175 -0.0559422 0
-0.129553 -0.0731312 0
-0.126429 -0.0910779 0
-0.121235 -0.109496 0
-0.113217 -0.12699 0
-0.101624 -0.142163 0
-0.086439 -0.152111 0
-0.0676488 -0.153927 0
-0.0468905 -0.143325 0
-0.0258015 -0.116018 0
-0.00872398 -0.0691843 0
0 0 0
0 0 0
-0.00909257 0.0770535 0
-0.0267778 0.1272 0
-0.0480246 0.154916 0
-0.0678021 0.164682 0
-0.0849895 0.161521 0
-0.0984663 0.150459 0
-0.10834 0.134506 0
-0.11472 0.116672 0
-0.118531 0.0982586 0
-0.120696 0.0805657 0
-0.121734 0.063754 0
-0.122163 0.0479839 0
-0.122307 0.0330479 0
-0.122494 0.0187389 0
-0.122831 0.00468981 0
-0.123424 -0.00946596 0
-0.124208 -0.0241181 0
-0.125118 -0.0396562 0
-0.125837 -0.0563706 0
-0.126046 -0.0745514 0
-0.125157 -0.0941077 0
-0.122581 -0.114949 0
-0.117159 -0.135655 0
-0.107733 -0.154809 0
-0.0939912 -0.168879 0
-0.0756206 -0.174338 0
-0.0539449 -0.165464 0
-0.030288 -0.136539 0
-0.0103922 -0.0829292 0
0 0 0
0 0 0
-0.0114136 0.091645 0
-0.0306012 0.147734 0
-0.0526256 0.17579 0
-0.0725494 0.183335 0
-0.0886839 0.176351 0
-0.0993405 0.160818 0
-0.105564 0.140708 0
-0.1084 0.11999 0
-0.108912 0.0996737 0
-0.108163 0.0807679 0
-0.106743 0.0633204 0
-0.10524 0.0473786 0
-0.103961 0.0325992 0
-0.103214 0.0186386 0
-0.103102 0.00504981 0
-0.103725 -0.00861441 0
-0.105048 -0.0228343 0
-0.107036 -0.0380901 0
-0.10942 -0.0548267 0
-0.111932 -0.0734892 0
-0.113964 -0.0941657 0
-0.114909 -0.116945 0
-0.113464 -0.14081 0
-0.108328 -0.164745 0
-0.0980587 -0.184157 0
-0.0812173 -0.19445 0
-0.0595642 -0.188609 0
-0.0348602 -0.159616 0
-0.0130304 -0.0994271 0
0 0 0
0 0 0
-0.0132466 0.107585 0
-0.0337071 0.169273 0
-0.0555865 0.19622 0
-0.0730901 0.199582 0
-0.0850481 0.18709 0
-0.0902908 0.166479 0
-0.0908124 0.1423 0
-0.088607 0.119108 0
-0.0847642 0.0974745 0
-0.0803736 0.0779726 0
-0.0760143 0.0605062 0
-0.0722656 0.0449788 0
-0.0693636 0.0309065 0
-0.0675442 0.0178051 0
-0.0668862 0.00517129 0
-0.0674683 -0.00749851 0
-0.0692919 -0.020749 0
-0.0723585 -0.035125 0
-0.0765052 -0.0512196 0
-0.0815691 -0.069626 0
-0.0870125 -0.0906338 0
-0.0922978 -0.114532 0
-0.0961721 -0.140891 0
-0.0973824 -0.16928 0
-0.0933846 -0.19455 0
-0.0816346 -0.211551 0
-0.0630479 -0.211078 0
-0.03854 -0.183928 0
-0.0151707 -0.117702 0
0 0 0
0 0 0
-0.0131067 0.123875 0
-0.0353421 0.190671 0
-0.0567725 0.21493 0
-0.0674646 0.211193 0
-0.0697914 0.190761 0
-0.0661262 0.164935 0
-0.0587109 0.137655 0
-0.0497877 0.112861 0
-0.0404422 0.0907629 0
-0.0317602 0.0715704 0
-0.024134 0.0549442 0
-0.0179554 0.0405445 0
-0.0133313 0.0277899 0
-0.0103687 0.0160992 0
-0.00910036 0.00494082 0
-0.0095592 -0.00621648 0
-0.0117876 -0.0179375 0
-0.0158278 -0.0307871 0
-0.021673 -0.045458 0
-0.0293163 -0.0626433 0
-0.0384648 -0.0828936 0
-0.0488255 -0.10676 0
-0.0593208 -0.134337 0
-0.0688731 -0.165721 0
-0.0747122 -0.196666 0
-0.0740681 -0.222926 0
-0.0636955 -0.231192 0
-0.0403491 -0.208158 0
-0.0153452 -0.136776 0
0 0 0
0 0 0
-0.0125979 0.142548 0
-0.0310361 0.209692 0
-0.0444976 0.224922 0
-0.0421651 0.211725 0
-0.0302509 0.183555 0
-0.0149669 0.153868 0
0.00178747 0.1253 0
0.0181132 0.100489 0
0.0331496 0.0792956 0
0.0460359 0.0615826 0
0.0566999 0.0467572 0
0.0650691 0.0342268 0
0.0712071 0.0233761 0
0.0751774 0.0135896 0
0.0770063 0.00435003 0
0.0767202 -0.0048597 0
0.0742395 -0.0145773 0
0.0694845 -0.0253406 0
0.0622883 -0.0378609 0
0.0524843 -0.0528496 0
0.0400028 -0.0711028 0
0.0247744 -0.0934164 0
0.00747631 -0.12032 0
-0.011214 -0.152342 0
-0.0291226 -0.186981 0
-0.0440755 -0.221731 0
-0.0484822 -0.240928 0
-0.0347523 -0.228905 0
-0.0146651 -0.157863 0
0 0 0
0 0 0
-0.0133239 0.165638 0
-0.0163192 0.2241 0
-0.0070759 0.219195 0
0.016316 0.194731 0
0.0462367 0.161666 0
0.0750667 0.130958 0
0.10173 0.103761 0
0.12515 0.081229 0
0.145106 0.0628294 0
0.161374 0.0480306 0
0.174289 0.036068 0
0.184186 0.026177 0
0.191323 0.0177914 0
0.195959 0.0103451 0
0.198184 0.00339055 0
0.198088 -0.00351954 0
0.195564 -0.010846 0
0.190506 -0.0190497 0
0.182591 -0.0287468 0
0.171491 -0.0405534 0
0.156714 -0.0554189 0
0.137768 -0.0742924 0
0.114606 -0.0980132 0
0.0871803 -0.12742 0
0.0563032 -0.161971 0
0.0227857 -0.201124 0
-0.00438308 -0.232262 0
-0.0162142 -0.24277 0
-0.0142418 -0.182174 0
0 0 0
0 0 0
0.00996641 0.165911 0
0.040065 0.209732 0
0.0825718 0.188137 0
0.129763 0.1578 0
0.176098 0.125542 0
0.216035 0.09818 0
0.249771 0.0755923 0
0.2775 0.0576554 0
0.299846 0.0436344 0
0.317433 0.0327946 0
0.330964 0.0243468 0
0.341141 0.0175018 0
0.348373 0.0118172 0
0.35307 0.00685038 0
0.35537 0.00226463 0
0.35541 -0.00227682 0
0.353071 -0.00712012 0
0.348234 -0.0126114 0
0.340475 -0.0191968 0
0.32937 -0.0273221 0
0.314086 -0.0379219 0
0.29379 -0.0519302 0
0.267591 -0.0702482 0
0.234596 -0.0937772 0
0.193922 -0.123485 0
0.14469 -0.160339 0
0.0931171 -0.196783 0
0.0454253 -0.225261 0
0.0111932 -0.181193 0
0 0 0
2.77334e-30 0 0
0.0825246 0.116134 0
0.169373 0.142425 0
0.251525 0.122135 0
0.319961 0.0985218 0
0.37576 0.0756313 0
0.42 0.0575081 0
0.454564 0.0433464 0
0.481336 0.0323409 0
0.501788 0.0239807 0
0.517393 0.0177548 0
0.529055 0.0130638 0
0.537681 0.00930808 0
0.543715 0.00623453 0
0.547606 0.00359009 0
0.549503 0.00117454 0
0.549555 -0.00121235 0
0.547648 -0.00377623 0
0.543664 -0.00672278 0
0.537184 -0.0102918 0
0.52779 -0.0147232 0
0.514535 -0.0206917 0
0.496476 -0.028872 0
0.471955 -0.0398562 0
0.439317 -0.0542362 0
0.396092 -0.0733692 0
0.33981 -0.0986121 0
0.268534 -0.12608 0
0.180326 -0.151888 0
0.0869083 -0.126405 0
2.77334e-30 0 0
0.25 0 0
0.360489 0.0496988 0
0.459914 0.059931 0
0.542946 0.049864 0
0.604258 0.0386652 0
0.649101 0.0283219 0
0.682731 0.0208216 0
0.707508 0.0153676 0
0.725792 0.0111632 0
0.739113 0.00804394 0
0.748999 0.00584531 0
0.756191 0.00426596 0
0.761426 0.00300457 0
0.76503 0.00198247 0
0.767328 0.00112103 0
0.76843 0.000344818 0
0.768445 -0.000421585 0
0.767291 -0.00125573 0
0.764888 -0.00223518 0
0.760949 -0.00342768 0
0.755187 -0.00490101 0
0.746896 -0.00697037 0
0.735365 -0.00995098 0
0.718993 -0.0140394 0
0.696175 -0.0194322 0
0.664292 -0.0270617 0
0.620722 -0.0378601 0
0.558588 -0.0504023 0
0.471011 -0.0632633 0