<?xml version="1.0"?>
<VTKFile type="UnstructuredGrid">
  <UnstructuredGrid>
  <Piece NumberOfPoints="6561"  NumberOfCells="1600">
    <Points>
      <DataArray type="Float64" NumberOfComponents="3" format="ascii">
0 0 0
0.0125 0 0
0.025 0 0
0.0375 0 0
0.05 0 0
0.0625 0 0
0.075 0 0
0.0875 0 0
0.1 0 0
0.1125 0 0
0.125 0 0
0.1375 0 0
0.15 0 0
0.1625 0 0
0.175 0 0
0.1875 0 0
0.2 0 0
0.2125 0 0
0.225 0 0
0.2375 0 0
0.25 0 0
0.2625 0 0
0.275 0 0
0.2875 0 0
0.3 0 0
0.3125 0 0
0.325 0 0
0.3375 0 0
0.35 0 0
0.3625 0 0
0.375 0 0
0.3875 0 0
0.4 0 0
0.4125 0 0
0.425 0 0
0.4375 0 0
0.45 0 0
0.4625 0 0
0.475 0 0
0.4875 0 0
0.5 0 0
0.5125 0 0
0.525 0 0
0.5375 0 0
0.55 0 0
0.5625 0 0
0.575 0 0
0.5875 0 0
0.6 0 0
0.6125 0 0
0.625 0 0
0.6375 0 0
0.65 0 0
0.6625 0 0
0.675 0 0
0.6875 0 0
0.7 0 0
0.7125 0 0
0.725 0 0
0.7375 0 0
0.75 0 0
0.7625 0 0
0.775 0 0
0.7875 0 0
0.8 0 0
0.8125 0 0
0.825 0 0
0.8375 0 0
0.85 0 0
0.8625 0 0
0.875 0 0
0.8875 0 0
0.9 0 0
0.9125 0 0
0.925 0 0
0.9375 0 0
0.95 0 0
0.9625 0 0
0.975 0 0
0.9875 0 0
1 0 0
0 0.0125 0
0.0125 0.0125 0
0.025 0.0125 0
0.0375 0.0125 0
0.05 0.0125 0
0.0625 0.0125 0
0.075 0.0125 0
0.0875 0.0125 0
0.1 0.0125 0
0.1125 0.0125 0
0.125 0.0125 0
0.1375 0.0125 0
0.15 0.0125 0
0.1625 0.0125 0
0.175 0.0125 0
0.1875 0.0125 0
0.2 0.0125 0
0.2125 0.0125 0
0.225 0.0125 0
0.2375 0.0125 0
0.25 0.0125 0
0.2625 0.0125 0
0.275 0.0125 0
0.2875 0.0125 0
0.3 0.0125 0
0.3125 0.0125 0
0.325 0.0125 0
0.3375 0.0125 0
0.35 0.0125 0
0.3625 0.0125 0
0.375 0.0125 0
0.3875 0.0125 0
0.4 0.0125 0
0.4125 0.0125 0
0.425 0.0125 0
0.4375 0.0125 0
0.45 0.0125 0
0.4625 0.0125 0
0.475 0.0125 0
0.4875 0.0125 0
0.5 0.0125 0
0.5125 0.0125 0
0.525 0.0125 0
0.5375 0.0125 0
0.55 0.0125 0
0.5625 0.0125 0
0.575 0.0125 0
0.5875 0.0125 0
0.6 0.0125 0
0.6125 0.0125 0
0.625 0.0125 0
0.6375 0.0125 0
0.65 0.0125 0
0.6625 0.0125 0
0.675 0.0125 0
0.6875 0.0125 0
0.7 0.0125 0
0.7125 0.0125 0
0.725 0.0125 0
0.7375 0.0125 0
0.75 0.0125 0
0.7625 0.0125 0
0.775 0.0125 0
0.7875 0.0125 0
0.8 0.0125 0
0.8125 0.0125 0
0.825 0.0125 0
0.8375 0.0125 0
0.85 0.0125 0
0.8625 0.0125 0
0.875 0.0125 0
0.8875 0.0125 0
0.9 0.0125 0
0.9125 0.0125 0
0.925 0.0125 0
0.9375 0.0125 0
0.95 0.0125 0
0.9625 0.0125 0
0.975 0.0125 0
0.9875 0.0125 0
1 0.0125 0
0 0.025 0
0.0125 0.025 0
0.025 0.025 0
0.0375 0.025 0
0.05 0.025 0
0.0625 0.025 0
0.075 0.025 0
0.0875 0.025 0
0.1 0.025 0
0.1125 0.025 0
0.125 0.025 0
0.1375 0.025 0
0.15 0.025 0
0.1625 0.025 0
0.175 0.025 0
0.1875 0.025 0
0.2 0.025 0
0.2125 0.025 0
0.225 0.025 0
0.2375 0.025 0
0.25 0.025 0
0.2625 0.025 0
0.275 0.025 0
0.2875 0.025 0
0.3 0.025 0
0.3125 0.025 0
0.325 0.025 0
0.3375 0.025 0
0.35 0.025 0
0.3625 0.025 0
0.375 0.025 0
0.3875 0.025 0
0.4 0.025 0
0.4125 0.025 0
0.425 0.025 0
0.4375 0.025 0
0.45 0.025 0
0.4625 0.025 0
0.475 0.025 0
0.4875 0.025 0
0.5 0.025 0
0.5125 0.025 0
0.525 0.025 0
0.5375 0.025 0
0.55 0.025 0
0.5625 0.025 0
0.575 0.025 0
0.5875 0.025 0
0.6 0.025 0
0.6125 0.025 0
0.625 0.025 0
0.6375 0.025 0
0.65 0.025 0
0.6625 0.025 0
0.675 0.025 0
0.6875 0.025 0
0.7 0.025 0
0.7125 0.025 0
0.725 0.025 0
0.7375 0.025 0
0.75 0.025 0
0.7625 0.025 0
0.775 0.025 0
0.7875 0.025 0
0.8 0.025 0
0.8125 0.025 0
0.825 0.025 0
0.8375 0.025 0
0.85 0.025 0
0.8625 0.025 0
0.875 0.025 0
0.8875 0.025 0
0.9 0.025 0
0.9125 0.025 0
0.925 0.025 0
0.9375 0.025 0
0.95 0.025 0
0.9625 0.025 0
0.975 0.025 0
0.9875 0.025 0
1 0.025 0
0 0.0375 0
0.0125 0.0375 0
0.025 0.0375 0
0.0375 0.0375 0
0.05 0.0375 0
0.0625 0.0375 0
0.075 0.0375 0
0.0875 0.0375 0
0.1 0.0375 0
0.1125 0.0375 0
0.125 0.0375 0
0.1375 0.0375 0
0.15 0.0375 0
0.1625 0.0375 0
0.175 0.0375 0
0.1875 0.0375 0
0.2 0.0375 0
0.2125 0.0375 0
0.225 0.0375 0
0.2375 0.0375 0
0.25 0.0375 0
0.2625 0.0375 0
0.275 0.0375 0
0.2875 0.0375 0
0.3 0.0375 0
0.3125 0.0375 0
0.325 0.0375 0
0.3375 0.0375 0
0.35 0.0375 0
0.3625 0.0375 0
0.375 0.0375 0
0.3875 0.0375 0
0.4 0.0375 0
0.4125 0.0375 0
0.425 0.0375 0
0.4375 0.0375 0
0.45 0.0375 0
0.4625 0.0375 0
0.475 0.0375 0
0.4875 0.0375 0
0.5 0.0375 0
0.5125 0.0375 0
0.525 0.0375 0
0.5375 0.0375 0
0.55 0.0375 0
0.5625 0.0375 0
0.575 0.0375 0
0.5875 0.0375 0
0.6 0.0375 0
0.6125 0.0375 0
0.625 0.0375 0
0.6375 0.0375 0
0.65 0.0375 0
0.6625 0.0375 0
0.675 0.0375 0
0.6875 0.0375 0
0.7 0.0375 0
0.7125 0.0375 0
0.725 0.0375 0
0.7375 0.0375 0
0.75 0.0375 0
0.7625 0.0375 0
0.775 0.0375 0
0.7875 0.0375 0
0.8 0.0375 0
0.8125 0.0375 0
0.825 0.0375 0
0.8375 0.0375 0
0.85 0.0375 0
0.8625 0.0375 0
0.875 0.0375 0
0.8875 0.0375 0
0.9 0.0375 0
0.9125 0.0375 0
0.925 0.0375 0
0.9375 0.0375 0
0.95 0.0375 0
0.9625 0.0375 0
0.975 0.0375 0
0.9875 0.0375 0
1 0.0375 0
0 0.05 0
0.0125 0.05 0
0.025 0.05 0
0.0375 0.05 0
0.05 0.05 0
0.0625 0.05 0
0.075 0.05 0
0.0875 0.05 0
0.1 0.05 0
0.1125 0.05 0
0.125 0.05 0
0.1375 0.05 0
0.15 0.05 0
0.1625 0.05 0
0.175 0.05 0
0.1875 0.05 0
0.2 0.05 0
0.2125 0.05 0
0.225 0.05 0
0.2375 0.05 0
0.25 0.05 0
0.2625 0.05 0
0.275 0.05 0
0.2875 0.05 0
0.3 0.05 0
0.3125 0.05 0
0.325 0.05 0
0.3375 0.05 0
0.35 0.05 0
0.3625 0.05 0
0.375 0.05 0
0.3875 0.05 0
0.4 0.05 0
0.4125 0.05 0
0.425 0.05 0
0.4375 0.05 0
0.45 0.05 0
0.4625 0.05 0
0.475 0.05 0
0.4875 0.05 0
0.5 0.05 0
0.5125 0.05 0
0.525 0.05 0
0.5375 0.05 0
0.55 0.05 0
0.5625 0.05 0
0.575 0.05 0
0.5875 0.05 0
0.6 0.05 0
0.6125 0.05 0
0.625 0.05 0
0.6375 0.05 0
0.65 0.05 0
0.6625 0.05 0
0.675 0.05 0
0.6875 0.05 0
0.7 0.05 0
0.7125 0.05 0
0.725 0.05 0
0.7375 0.05 0
0.75 0.05 0
0.7625 0.05 0
0.775 0.05 0
0.7875 0.05 0
0.8 0.05 0
0.8125 0.05 0
0.825 0.05 0
0.8375 0.05 0
0.85 0.05 0
0.8625 0.05 0
0.875 0.05 0
0.8875 0.05 0
0.9 0.05 0
0.9125 0.05 0
0.925 0.05 0
0.9375 0.05 0
0.95 0.05 0
0.9625 0.05 0
0.975 0.05 0
0.9875 0.05 0
1 0.05 0
0 0.0625 0
0.0125 0.0625 0
0.025 0.0625 0
0.0375 0.0625 0
0.05 0.0625 0
0.0625 0.0625 0
0.075 0.0625 0
0.0875 0.0625 0
0.1 0.0625 0
0.1125 0.0625 0
0.125 0.0625 0
0.1375 0.0625 0
0.15 0.0625 0
0.1625 0.0625 0
0.175 0.0625 0
0.1875 0.0625 0
0.2 0.0625 0
0.2125 0.0625 0
0.225 0.0625 0
0.2375 0.0625 0
0.25 0.0625 0
0.2625 0.0625 0
0.275 0.0625 0
0.2875 0.0625 0
0.3 0.0625 0
0.3125 0.0625 0
0.325 0.0625 0
0.3375 0.0625 0
0.35 0.0625 0
0.3625 0.0625 0
0.375 0.0625 0
0.3875 0.0625 0
0.4 0.0625 0
0.4125 0.0625 0
0.425 0.0625 0
0.4375 0.0625 0
0.45 0.0625 0
0.4625 0.0625 0
0.475 0.0625 0
0.4875 0.0625 0
0.5 0.0625 0
0.5125 0.0625 0
0.525 0.0625 0
0.5375 0.0625 0
0.55 0.0625 0
0.5625 0.0625 0
0.575 0.0625 0
0.5875 0.0625 0
0.6 0.0625 0
0.6125 0.0625 0
0.625 0.0625 0
0.6375 0.0625 0
0.65 0.0625 0
0.6625 0.0625 0
0.675 0.0625 0
0.6875 0.0625 0
0.7 0.0625 0
0.7125 0.0625 0
0.725 0.0625 0
0.7375 0.0625 0
0.75 0.0625 0
0.7625 0.0625 0
0.775 0.0625 0
0.7875 0.0625 0
0.8 0.0625 0
0.8125 0.0625 0
0.825 0.0625 0
0.8375 0.0625 0
0.85 0.0625 0
0.8625 0.0625 0
0.875 0.0625 0
0.8875 0.0625 0
0.9 0.0625 0
0.9125 0.0625 0
0.925 0.0625 0
0.9375 0.0625 0
0.95 0.0625 0
0.9625 0.0625 0
0.975 0.0625 0
0.9875 0.0625 0
1 0.0625 0
0 0.075 0
0.0125 0.075 0
0.025 0.075 0
0.0375 0.075 0
0.05 0.075 0
0.0625 0.075 0
0.075 0.075 0
0.0875 0.075 0
0.1 0.075 0
0.1125 0.075 0
0.125 0.075 0
0.1375 0.075 0
0.15 0.075 0
0.1625 0.075 0
0.175 0.075 0
0.1875 0.075 0
0.2 0.075 0
0.2125 0.075 0
0.225 0.075 0
0.2375 0.075 0
0.25 0.075 0
0.2625 0.075 0
0.275 0.075 0
0.2875 0.075 0
0.3 0.075 0
0.3125 0.075 0
0.325 0.075 0
0.3375 0.075 0
0.35 0.075 0
0.3625 0.075 0
0.375 0.075 0
0.3875 0.075 0
0.4 0.075 0
0.4125 0.075 0
0.425 0.075 0
0.4375 0.075 0
0.45 0.075 0
0.4625 0.075 0
0.475 0.075 0
0.4875 0.075 0
0.5 0.075 0
0.5125 0.075 0
0.525 0.075 0
0.5375 0.075 0
0.55 0.075 0
0.5625 0.075 0
0.575 0.075 0
0.5875 0.075 0
0.6 0.075 0
0.6125 0.075 0
0.625 0.075 0
0.6375 0.075 0
0.65 0.075 0
0.6625 0.075 0
0.675 0.075 0
0.6875 0.075 0
0.7 0.075 0
0.7125 0.075 0
0.725 0.075 0
0.7375 0.075 0
0.75 0.075 0
0.7625 0.075 0
0.775 0.075 0
0.7875 0.075 0
0.8 0.075 0
0.8125 0.075 0
0.825 0.075 0
0.8375 0.075 0
0.85 0.075 0
0.8625 0.075 0
0.875 0.075 0
0.8875 0.075 0
0.9 0.075 0
0.9125 0.075 0
0.925 0.075 0
0.9375 0.075 0
0.95 0.075 0
0.9625 0.075 0
0.975 0.075 0
0.9875 0.075 0
1 0.075 0
0 0.0875 0
0.0125 0.0875 0
0.025 0.0875 0
0.0375 0.0875 0
0.05 0.0875 0
0.0625 0.0875 0
0.075 0.0875 0
0.0875 0.0875 0
0.1 0.0875 0
0.1125 0.0875 0
0.125 0.0875 0
0.1375 0.0875 0
0.15 0.0875 0
0.1625 0.0875 0
0.175 0.0875 0
0.1875 0.0875 0
0.2 0.0875 0
0.2125 0.0875 0
0.225 0.0875 0
0.2375 0.0875 0
0.25 0.0875 0
0.2625 0.0875 0
0.275 0.0875 0
0.2875 0.0875 0
0.3 0.0875 0
0.3125 0.0875 0
0.325 0.0875 0
0.3375 0.0875 0
0.35 0.0875 0
0.3625 0.0875 0
0.375 0.0875 0
0.3875 0.0875 0
0.4 0.0875 0
0.4125 0.0875 0
0.425 0.0875 0
0.4375 0.0875 0
0.45 0.0875 0
0.4625 0.0875 0
0.475 0.0875 0
0.4875 0.0875 0
0.5 0.0875 0
0.5125 0.0875 0
0.525 0.0875 0
0.5375 0.0875 0
0.55 0.0875 0
0.5625 0.0875 0
0.575 0.0875 0
0.5875 0.0875 0
0.6 0.0875 0
0.6125 0.0875 0
0.625 0.0875 0
0.6375 0.0875 0
0.65 0.0875 0
0.6625 0.0875 0
0.675 0.0875 0
0.6875 0.0875 0
0.7 0.0875 0
0.7125 0.0875 0
0.725 0.0875 0
0.7375 0.0875 0
0.75 0.0875 0
0.7625 0.0875 0
0.775 0.0875 0
0.7875 0.0875 0
0.8 0.0875 0
0.8125 0.0875 0
0.825 0.0875 0
0.8375 0.0875 0
0.85 0.0875 0
0.8625 0.0875 0
0.875 0.0875 0
0.8875 0.0875 0
0.9 0.0875 0
0.9125 0.0875 0
0.925 0.0875 0
0.9375 0.0875 0
0.95 0.0875 0
0.9625 0.0875 0
0.975 0.0875 0
0.9875 0.0875 0
1 0.0875 0
0 0.1 0
0.0125 0.1 0
0.025 0.1 0
0.0375 0.1 0
0.05 0.1 0
0.0625 0.1 0
0.075 0.1 0
0.0875 0.1 0
0.1 0.1 0
0.1125 0.1 0
0.125 0.1 0
0.1375 0.1 0
0.15 0.1 0
0.1625 0.1 0
0.175 0.1 0
0.1875 0.1 0
0.2 0.1 0
0.2125 0.1 0
0.225 0.1 0
0.2375 0.1 0
0.25 0.1 0
0.2625 0.1 0
0.275 0.1 0
0.2875 0.1 0
0.3 0.1 0
0.3125 0.1 0
0.325 0.1 0
0.3375 0.1 0
0.35 0.1 0
0.3625 0.1 0
0.375 0.1 0
0.3875 0.1 0
0.4 0.1 0
0.4125 0.1 0
0.425 0.1 0
0.4375 0.1 0
0.45 0.1 0
0.4625 0.1 0
0.475 0.1 0
0.4875 0.1 0
0.5 0.1 0
0.5125 0.1 0
0.525 0.1 0
0.5375 0.1 0
0.55 0.1 0
0.5625 0.1 0
0.575 0.1 0
0.5875 0.1 0
0.6 0.1 0
0.6125 0.1 0
0.625 0.1 0
0.6375 0.1 0
0.65 0.1 0
0.6625 0.1 0
0.675 0.1 0
0.6875 0.1 0
0.7 0.1 0
0.7125 0.1 0
0.725 0.1 0
0.7375 0.1 0
0.75 0.1 0
0.7625 0.1 0
0.775 0.1 0
[...]
    <PointData>
      <DataArray type="Float64" NumberOfComponents="3" Name="Velocity" format="ascii">
0 0 0
0 0 0
0 0 0
0 0 0
0 0 0
0 0 0
0 0 0
0 0 0
0 0 0
0 0 0
0 0 0
0 0 0
0 0 0
0 0 0
0 0 0
0 0 0
0 0 0
0 0 0
0 0 0
0 0 0
0 0 0
0 0 0
0 0 0
0 0 0
0 0 0
0 0 0
0 0 0
0 0 0
0 0 0
0 0 0
0 0 0
0 0 0
0 0 0
0 0 0
0 0 0
0 0 0
0 0 0
0 0 0
0 0 0
0 0 0
0 0 0
0 0 0
0 0 0
0 0 0
0 0 0
0 0 0
0 0 0
0 0 0
0 0 0
0 0 0
0 0 0
0 0 0
0 0 0
0 0 0
0 0 0
0 0 0
0 0 0
0 0 0
0 0 0
0 0 0
0 0 0
0 0 0
0 0 0
0 0 0
0 0 0
0 0 0
0 0 0
0 0 0
0 0 0
0 0 0
0 0 0
0 0 0
0 0 0
0 0 0
0 0 0
0 0 0
0 0 0
0 0 0
0 0 0
0 0 0
0 0 0
0 0 0
6.38597e-06 -6.01564e-06 0
7.24723e-06 2.45229e-07 0
-4.60189e-06 1.33868e-05 0
-3.63471e-05 2.80134e-05 0
-8.75451e-05 4.27772e-05 0
-0.000157753 5.63302e-05 0
-0.000245021 6.83155e-05 0
-0.0003474 7.83758e-05 0
-0.000462283 8.65656e-05 0
-0.000587065 9.29392e-05 0
-0.000719521 9.76342e-05 0
-0.000857428 0.000100788 0
-0.000998878 0.000102572 0
-0.00114196 0.000103159 0
-0.00128526 0.000102708 0
-0.00142737 0.000101379 0
-0.00156725 9.93064e-05 0
-0.00170384 9.66285e-05 0
-0.00183647 9.34512e-05 0
-0.00196443 8.98808e-05 0
-0.00208729 8.59958e-05 0
-0.00220459 8.18746e-05 0
-0.00231608 7.75713e-05 0
-0.00242149 7.31398e-05 0
-0.0025207 6.86152e-05 0
-0.00261355 6.40327e-05 0
-0.00270001 5.94131e-05 0
-0.00278 5.47776e-05 0
-0.00285352 5.01376e-05 0
-0.00292056 4.55043e-05 0
-0.00298113 4.08829e-05 0
-0.00303524 3.62783e-05 0
-0.00308291 3.16914e-05 0
-0.00312417 2.71233e-05 0
-0.00315904 2.25725e-05 0
-0.00318753 1.80377e-05 0
-0.00320968 1.3516e-05 0
-0.00322548 9.00478e-06 0
-0.00323496 4.50059e-06 0
-0.00323812 -4.86584e-19 0
-0.00323496 -4.50059e-06 0
-0.00322548 -9.00478e-06 0
-0.00320968 -1.3516e-05 0
-0.00318753 -1.80377e-05 0
-0.00315904 -2.25725e-05 0
-0.00312417 -2.71233e-05 0
-0.00308291 -3.16914e-05 0
-0.00303524 -3.62783e-05 0
-0.00298113 -4.08829e-05 0
-0.00292056 -4.55043e-05 0
-0.00285352 -5.01376e-05 0
-0.00278 -5.47776e-05 0
-0.00270001 -5.94131e-05 0
-0.00261355 -6.40327e-05 0
-0.0025207 -6.86152e-05 0
-0.00242149 -7.31398e-05 0
-0.00231608 -7.75713e-05 0
-0.00220459 -8.18746e-05 0
-0.00208729 -8.59958e-05 0
-0.00196443 -8.98808e-05 0
-0.00183647 -9.34512e-05 0
-0.00170384 -9.66285e-05 0
-0.00156725 -9.93064e-05 0
-0.00142737 -0.000101379 0
-0.00128526 -0.000102708 0
-0.00114196 -0.000103159 0
-0.000998878 -0.000102572 0
-0.000857428 -0.000100788 0
-0.000719521 -9.76342e-05 0
-0.000587065 -9.29392e-05 0
-0.000462283 -8.65656e-05 0
-0.0003474 -7.83758e-05 0
-0.000245021 -6.83155e-05 0
-0.000157753 -5.63302e-05 0
-8.75451e-05 -4.27772e-05 0
-3.63471e-05 -2.80134e-05 0
-4.60189e-06 -1.33868e-05 0
7.24723e-06 -2.45229e-07 0
6.38597e-06 6.01564e-06 0
0 0 0
0 0 0
7.00438e-07 -7.79945e-06 0
-1.37664e-05 1.36044e-05 0
-5.27402e-05 5.16374e-05 0
-0.000125561 9.37251e-05 0
-0.000231744 0.000136344 0
-0.000370805 0.000175969 0
-0.000539578 0.000211384 0
-0.000734895 0.000241373 0
-0.000952434 0.000266018 0
-0.00118787 0.000285404 0
-0.00143727 0.000299851 0
-0.00169668 0.000309675 0
-0.00196272 0.000315379 0
-0.00223197 0.000317463 0
-0.00250183 0.000316381 0
-0.00276969 0.000312587 0
-0.0030336 0.000306494 0
-0.00329164 0.000298516 0
-0.00354247 0.00028897 0
-0.00378477 0.000278176 0
-0.00401767 0.000266375 0
-0.00424029 0.000253811 0
-0.00445211 0.000240649 0
-0.0046526 0.000227056 0
-0.00484147 0.000213144 0
-0.00501842 0.000199024 0
-0.00518331 0.000184763 0
-0.00533599 0.000170428 0
-0.00547643 0.000156058 0
-0.00560456 0.000141691 0
-0.0057204 0.000127344 0
-0.00582394 0.000113034 0
-0.0059152 9.87675e-05 0
-0.00599422 8.4549e-05 0
-0.00606101 7.03758e-05 0
-0.00611562 5.62454e-05 0
-0.00615806 4.21505e-05 0
-0.00618836 2.80842e-05 0
-0.00620653 1.40371e-05 0
-0.00621258 -8.6961e-18 0
-0.00620653 -1.40371e-05 0
-0.00618836 -2.80842e-05 0
-0.00615806 -4.21505e-05 0
-0.00611562 -5.62454e-05 0
-0.00606101 -7.03758e-05 0
-0.00599422 -8.4549e-05 0
-0.0059152 -9.87675e-05 0
-0.00582394 -0.000113034 0
-0.0057204 -0.000127344 0
-0.00560456 -0.000141691 0
-0.00547643 -0.000156058 0
-0.00533599 -0.000170428 0
-0.00518331 -0.000184763 0
-0.00501842 -0.000199024 0
-0.00484147 -0.000213144 0
-0.0046526 -0.000227056 0
-0.00445211 -0.000240649 0
-0.00424029 -0.000253811 0
-0.00401767 -0.000266375 0
-0.00378477 -0.000278176 0
-0.00354247 -0.00028897 0
-0.00329164 -0.000298516 0
-0.0030336 -0.000306494 0
-0.00276969 -0.000312587 0
-0.00250183 -0.000316381 0
-0.00223197 -0.000317463 0
-0.00196272 -0.000315379 0
-0.00169668 -0.000309675 0
-0.00143727 -0.000299851 0
-0.00118787 -0.000285404 0
-0.000952434 -0.000266018 0
-0.000734895 -0.000241373 0
-0.000539578 -0.000211384 0
-0.000370805 -0.000175969 0
-0.000231744 -0.000136344 0
-0.000125561 -9.37251e-05 0
-5.27402e-05 -5.16374e-05 0
-1.37664e-05 -1.36044e-05 0
7.00438e-07 7.79945e-06 0
0 0 0
0 0 0
-1.22321e-05 3.55038e-06 0
-5.16867e-05 5.19959e-05 0
-0.000127116 0.00012631 0
-0.000247273 0.000207468 0
-0.000411283 0.000289281 0
-0.000618273 0.000365563 0
-0.000864308 0.000434025 0
-0.00114545 0.000492376 0
-0.00145618 0.000540616 0
-0.00179094 0.000578742 0
-0.00214455 0.000607309 0
-0.00251179 0.000626874 0
-0.00288809 0.000638359 0
-0.00326888 0.000642688 0
-0.00365058 0.000640732 0
-0.00402962 0.000633365 0
-0.0044033 0.000621388 0
-0.00476894 0.0006056 0
-0.00512467 0.000586628 0
-0.00546861 0.000565102 0
-0.00579949 0.000541501 0
-0.00611608 0.000516305 0
-0.00641757 0.00048985 0
-0.00670319 0.000462471 0
-0.00697248 0.000434394 0
-0.00722497 0.000405844 0
-0.00746044 0.00037696 0
-0.00767864 0.000347882 0
-0.00787947 0.00031869 0
-0.00806282 0.000289466 0
-0.00822865 0.000260249 0
-0.00837696 0.000231079 0
-0.00850774 0.00020197 0
-0.00862101 0.000172937 0
-0.0087168 0.000143976 0
-0.00879512 0.000115087 0
-0.00885601 8.62573e-05 0
-0.00889948 5.7477e-05 0
-0.00892556 2.87299e-05 0
-0.00893425 -1.16774e-17 0
-0.00892556 -2.87299e-05 0
-0.00889948 -5.7477e-05 0
-0.00885601 -8.62573e-05 0
-0.00879512 -0.000115087 0
-0.0087168 -0.000143976 0
-0.00862101 -0.000172937 0
-0.00850774 -0.00020197 0
-0.00837696 -0.000231079 0
-0.00822865 -0.000260249 0
-0.00806282 -0.000289466 0
-0.00787947 -0.00031869 0
-0.00767864 -0.000347882 0
-0.00746044 -0.00037696 0
-0.00722497 -0.000405844 0
-0.00697248 -0.000434394 0
-0.00670319 -0.000462471 0
-0.00641757 -0.00048985 0
-0.00611608 -0.000516305 0
-0.00579949 -0.000541501 0
-0.00546861 -0.000565102 0
-0.00512467 -0.000586628 0
-0.00476894 -0.0006056 0
-0.0044033 -0.000621388 0
-0.00402962 -0.000633365 0
-0.00365058 -0.000640732 0
-0.00326888 -0.000642688 0
-0.00288809 -0.000638359 0
-0.00251179 -0.000626874 0
-0.00214455 -0.000607309 0
-0.00179094 -0.000578742 0
-0.00145618 -0.000540616 0
-0.00114545 -0.000492376 0
-0.000864308 -0.000434025 0
-0.000618273 -0.000365563 0
-0.000411283 -0.000289281 0
-0.000247273 -0.000207468 0
-0.000127116 -0.00012631 0
-5.16867e-05 -5.19959e-05 0
-1.22321e-05 -3.55038e-06 0
0 0 0
0 0 0
-2.75872e-05 3.69357e-05 0
-9.51596e-05 0.000127338 0
-0.000210431 0.000248965 0
-0.000381116 0.000379575 0
-0.000604851 0.000510173 0
-0.000879271 0.00063176 0
-0.00119985 0.000741055 0
-0.00156204 0.000834773 0
-0.00195924 0.00091262 0
-0.00238482 0.000974297 0
-0.00283269 0.00102067 0
-0.00329678 0.00105259 0
-0.00377156 0.00107145 0
-0.00425152 0.00107861 0
-0.00473238 0.00107548 0
-0.00520983 0.00106345 0
-0.00568057 0.00104381 0
-0.00614131 0.00101782 0
-0.00658973 0.000986495 0
-0.00702353 0.000950874 0
-0.00744112 0.000911733 0
-0.00784091 0.000869855 0
-0.00822191 0.000825794 0
-0.00858309 0.000780108 0
-0.00892386 0.000733172 0
-0.0092436 0.000685361 0
-0.00954197 0.000636913 0
-0.00981863 0.000588067 0
-0.0100734 0.000538962 0
-0.0103061 0.000489738 0
-0.0105167 0.000440468 0
-0.0107052 0.000391227 0
-0.0108714 0.000342043 0
-0.0110154 0.000292946 0
-0.0111373 0.000243939 0
-0.0112369 0.000195025 0
-0.0113144 0.00014619 0
-0.0113697 9.74221e-05 0
-0.0114029 4.86991e-05 0
-0.011414 3.51278e-18 0
-0.0114029 -4.86991e-05 0
-0.0113697 -9.74221e-05 0
-0.0113144 -0.00014619 0
-0.0112369 -0.000195025 0
-0.0111373 -0.000243939 0
-0.0110154 -0.000292946 0
-0.0108714 -0.000342043 0
-0.0107052 -0.000391227 0
-0.0105167 -0.000440468 0
-0.0103061 -0.000489738 0
-0.0100734 -0.000538962 0
-0.00981863 -0.000588067 0
-0.00954197 -0.000636913 0
-0.0092436 -0.000685361 0
-0.00892386 -0.000733172 0
-0.00858309 -0.000780108 0
-0.00822191 -0.000825794 0
-0.00784091 -0.000869855 0
-0.00744112 -0.000911733 0
-0.00702353 -0.000950874 0
-0.00658973 -0.000986495 0
-0.00614131 -0.00101782 0
-0.00568057 -0.00104381 0
-0.00520983 -0.00106345 0
-0.00473238 -0.00107548 0
-0.00425152 -0.00107861 0
-0.00377156 -0.00107145 0
-0.00329678 -0.00105259 0
-0.00283269 -0.00102067 0
-0.00238482 -0.000974297 0
-0.00195924 -0.00091262 0
-0.00156204 -0.000834773 0
-0.00119985 -0.000741055 0
-0.000879271 -0.00063176 0
-0.000604851 -0.000510173 0
-0.000381116 -0.000379575 0
-0.000210431 -0.000248965 0
-9.51596e-05 -0.000127338 0
-2.75872e-05 -3.69357e-05 0
0 0 0
0 0 0
-4.31966e-05 8.95515e-05 0
-0.000140348 0.000236478 0
-0.000297304 0.000416666 0
-0.000519917 0.000606002 0
-0.00080384 0.000793228 0
-0.00114473 0.000967088 0
-0.00153729 0.00112327 0
-0.00197626 0.00125747 0
-0.00245405 0.00136914 0
-0.00296312 0.00145772 0
-0.0034967 0.00152438 0
-0.00404801 0.0015703 0
-0.00461086 0.00159737 0
-0.00517901 0.00160748 0
-0.00574763 0.00160263 0
-0.0063119 0.00158482 0
-0.00686805 0.00155587 0
-0.00741234 0.00151757 0
-0.00794213 0.00147141 0
-0.00845477 0.00141887 0
-0.00894842 0.00136108 0
-0.00942125 0.00129917 0
-0.00987206 0.00123395 0
-0.0102997 0.00116624 0
-0.0107033 0.00109658 0
-0.0110823 0.00102553 0
-0.0114361 0.00095345 0
-0.0117644 0.000880685 0
-0.0120668 0.000807451 0
-0.0123432 0.000733961 0
-0.0125935 0.000660331 0
-0.0128175 0.000586677 0
-0.0130152 0.000513051 0
-0.0131865 0.000439503 0
-0.0133315 0.000366046 0
-0.0134501 0.000292692 0
-0.0135423 0.000219427 0
-0.0136082 0.00014624 0
-0.0136477 7.31056e-05 0
-0.0136609 1.34978e-17 0
-0.0136477 -7.31056e-05 0
-0.0136082 -0.00014624 0
-0.0135423 -0.000219427 0
-0.0134501 -0.000292692 0
-0.0133315 -0.000366046 0
-0.0131865 -0.000439503 0
-0.0130152 -0.000513051 0
-0.0128175 -0.000586677 0
-0.0125935 -0.000660331 0
-0.0123432 -0.000733961 0
-0.0120668 -0.000807451 0
-0.0117644 -0.000880685 0
-0.0114361 -0.00095345 0
-0.0110823 -0.00102553 0
-0.0107033 -0.00109658 0
-0.0102997 -0.00116624 0
-0.00987206 -0.00123395 0
-0.00942125 -0.00129917 0
-0.00894842 -0.00136108 0
-0.00845477 -0.00141887 0
-0.00794213 -0.00147141 0
-0.00741234 -0.00151757 0
-0.00686805 -0.00155587 0
-0.0063119 -0.00158482 0
-0.00574763 -0.00160263 0
-0.00517901 -0.00160748 0
-0.00461086 -0.00159737 0
-0.00404801 -0.0015703 0
-0.0034967 -0.00152438 0
-0.00296312 -0.00145772 0
-0.00245405 -0.00136914 0
-0.00197626 -0.00125747 0
-0.00153729 -0.00112327 0
-0.00114473 -0.000967088 0
-0.00080384 -0.000793228 0
-0.000519917 -0.000606002 0
-0.000297304 -0.000416666 0
-0.000140348 -0.000236478 0
-4.31966e-05 -8.95515e-05 0
0 0 0
0 0 0
-5.68924e-05 0.000158593 0
-0.000183414 0.000376264 0
-0.000382353 0.000626479 0
-0.000656501 0.000882703 0
-0.000999644 0.00113266 0
-0.00140557 0.00136407 0
-0.00186775 0.00157147 0
-0.00237968 0.00174939 0
-0.00293303 0.00189729 0
-0.00351947 0.00201466 0
-0.00413156 0.00210291 0
-0.00476189 0.00216345 0
-0.00540375 0.00219882 0
-0.00605045 0.00221153 0
-0.00669675 0.00220421 0
-0.00733741 0.00217945 0
-0.0079684 0.00213967 0
-0.00858567 0.00208727 0
-0.00918635 0.00202422 0
-0.00976756 0.00195248 0
-0.0103273 0.00187356 0
-0.0108635 0.00178897 0
-0.0113749 0.0016998 0
-0.0118602 0.00160714 0
-0.0123185 0.00151173 0
-0.0127489 0.00141432 0
-0.013151 0.0013154 0
-0.0135242 0.00121544 0
-0.0138683 0.00111474 0
-0.0141828 0.00101359 0
-0.0144677 0.000912169 0
-0.0147228 0.000810633 0
-0.014948 0.000709062 0
-0.0151433 0.000607536 0
-0.0153085 0.000506081 0
-0.0154437 0.000404719 0
-0.0155489 0.000303445 0
-0.0156241 0.00020225 0
-0.0156692 0.00010111 0
-0.0156842 -5.12744e-18 0
-0.0156692 -0.00010111 0
-0.0156241 -0.00020225 0
-0.0155489 -0.000303445 0
-0.0154437 -0.000404719 0
-0.0153085 -0.000506081 0
-0.0151433 -0.000607536 0
-0.014948 -0.000709062 0
-0.0147228 -0.000810633 0
-0.0144677 -0.000912169 0
-0.0141828 -0.00101359 0
-0.0138683 -0.00111474 0
-0.0135242 -0.00121544 0
-0.013151 -0.0013154 0
-0.0127489 -0.00141432 0
-0.0123185 -0.00151173 0
-0.0118602 -0.00160714 0
-0.0113749 -0.0016998 0
-0.0108635 -0.00178897 0
-0.0103273 -0.00187356 0
-0.00976756 -0.00195248 0
-0.00918635 -0.00202422 0
-0.00858567 -0.00208727 0
-0.0079684 -0.00213967 0
-0.00733741 -0.00217945 0
-0.00669675 -0.00220421 0
-0.00605045 -0.00221153 0
-0.00540375 -0.00219882 0
-0.00476189 -0.00216345 0
-0.00413156 -0.00210291 0
-0.00351947 -0.00201466 0
-0.00293303 -0.00189729 0
-0.00237968 -0.00174939 0
-0.00186775 -0.00157147 0
-0.00140557 -0.00136407 0
-0.000999644 -0.00113266 0
-0.000656501 -0.000882703 0
-0.000382353 -0.000626479 0
-0.000183414 -0.000376264 0
-5.68924e-05 -0.000158593 0
0 0 0
0 0 0
-7.05034e-05 0.000249004 0
-0.000225249 0.000552925 0
-0.000464643 0.00088449 0
-0.000789092 0.00121643 0
-0.00119001 0.00153578 0
-0.00165882 0.00182957 0
-0.0021877 0.00209164 0
-0.00276883 0.0023158 0
-0.003393 0.00250165 0
-0.004051 0.00264873 0
-0.00473484 0.00275887 0
-0.00543654 0.00283388 0
-0.00614905 0.00287694 0
-0.00686529 0.00289127 0
-0.0075798 0.00288015 0
-0.00828709 0.00284684 0
-0.00898296 0.00279441 0
-0.00966321 0.00272588 0
-0.0103248 0.00264373 0
-0.0109648 0.00255041 0
-0.0115811 0.00244786 0
-0.0121716 0.00233796 0
-0.0127348 0.00222209 0
-0.0132693 0.00210164 0
-0.0137743 0.00197753 0
-0.0142487 0.00185073 0
-0.0146921 0.00172186 0
-0.0151038 0.00159153 0
-0.0154834 0.00146012 0
-0.0158307 0.00132803 0
-0.0161454 0.00119547 0
-0.0164272 0.00106266 0
-0.0166761 0.000929715 0
-0.016892 0.00079675 0
-0.0170747 0.000663806 0
-0.0172243 0.000530926 0
-0.0173406 0.000398113 0
-0.0174238 0.000265368 0
-0.0174737 0.00013267 0
-0.0174903 -9.06775e-18 0
-0.0174737 -0.00013267 0
-0.0174238 -0.000265368 0
-0.0173406 -0.000398113 0
-0.0172243 -0.000530926 0
-0.0170747 -0.000663806 0
-0.016892 -0.00079675 0
-0.0166761 -0.000929715 0
-0.0164272 -0.00106266 0
-0.0161454 -0.00119547 0
-0.0158307 -0.00132803 0
-0.0154834 -0.00146012 0
-0.0151038 -0.00159153 0
-0.0146921 -0.00172186 0
-0.0142487 -0.00185073 0
-0.0137743 -0.00197753 0
-0.0132693 -0.00210164 0
-0.0127348 -0.00222209 0
-0.0121716 -0.00233796 0
-0.0115811 -0.00244786 0
-0.0109648 -0.00255041 0
-0.0103248 -0.00264373 0
-0.00966321 -0.00272588 0
-0.00898296 -0.00279441 0
-0.00828709 -0.00284684 0
-0.0075798 -0.00288015 0
-0.00686529 -0.00289127 0
-0.00614905 -0.00287694 0
-0.00543654 -0.00283388 0
-0.00473484 -0.00275887 0
-0.004051 -0.00264873 0
-0.003393 -0.00250165 0
-0.00276883 -0.0023158 0
-0.0021877 -0.00209164 0
-0.00165882 -0.00182957 0
-0.00119001 -0.00153578 0
-0.000789092 -0.00121643 0
-0.000464643 -0.00088449 0
-0.000225249 -0.000552925 0
-7.05034e-05 -0.000249004 0
0 0 0
0 0 0
-8.58587e-05 0.00036573 0
-0.000266744 0.000772687 0
-0.000543236 0.00119678 0
-0.000915911 0.00161393 0
-0.00137269 0.0020099 0
-0.00190151 0.00237043 0
-0.0024936 0.00268974 0
-0.0031402 0.00296202 0
-0.0038308 0.00318679 0
-0.00455485 0.00336358 0
-0.00530405 0.00349493 0
-0.00607011 0.00358341 0
-0.00684557 0.00363288 0
-0.007623 0.00364718 0
-0.00839687 0.00363037 0
-0.00916166 0.00358652 0
-0.0099131 0.0035193 0
-0.0106469 0.00343237 0
-0.0113601 0.00332874 0
-0.0120496 0.00321141 0
-0.0127134 0.00308268 0
-0.0133492 0.00294485 0
-0.0139557 0.00279959 0
-0.0145315 0.00264856 0
-0.0150755 0.0024929 0
-0.0155867 0.00233378 0
-0.0160647 0.00217195 0
-0.0165086 0.00200817 0
-0.0169181 0.00184292 0
-0.0172928 0.00167667 0
-0.0176325 0.00150971 0
-0.0179368 0.00134232 0
-0.0182057 0.00117465 0
-0.0184389 0.00100685 0
-0.0186364 0.000838986 0
-0.0187981 0.000671131 0
-0.0189239 0.000503299 0
-0.0190138 0.000335507 0
-0.0190677 0.000167744 0
-0.0190857 4.49222e-17 0
-0.0190677 -0.000167744 0
-0.0190138 -0.000335507 0
-0.0189239 -0.000503299 0
-0.0187981 -0.000671131 0
-0.0186364 -0.000838986 0
-0.0184389 -0.00100685 0
-0.0182057 -0.00117465 0
-0.0179368 -0.00134232 0
-0.0176325 -0.00150971 0
-0.0172928 -0.00167667 0
-0.0169181 -0.00184292 0
-0.0165086 -0.00200817 0
-0.0160647 -0.00217195 0
-0.0155867 -0.00233378 0
-0.0150755 -0.0024929 0
-0.0145315 -0.00264856 0
-0.0139557 -0.00279959 0
-0.0133492 -0.00294485 0
-0.0127134 -0.00308268 0
-0.0120496 -0.00321141 0
-0.0113601 -0.00332874 0
-0.0106469 -0.00343237 0
-0.0099131 -0.0035193 0
-0.00916166 -0.00358652 0
-0.00839687 -0.00363037 0
-0.007623 -0.00364718 0
-0.00684557 -0.00363288 0
-0.00607011 -0.00358341 0
-0.00530405 -0.00349493 0
-0.00455485 -0.00336358 0
-0.0038308 -0.00318679 0
-0.0031402 -0.00296202 0
-0.0024936 -0.00268974 0
-0.00190151 -0.00237043 0
-0.00137269 -0.0020099 0
-0.000915911 -0.00161393 0
-0.000543236 -0.00119678 0
-0.000266744 -0.000772687 0
-8.58587e-05 -0.00036573 0
0 0 0
0 0 0
-9.91953e-05 0.00049674 0
-0.000305147 0.00102014 0
-0.000617698 0.00154806 0
-0.00103669 0.00205832 0
-0.00154693 0.00253632 0
-0.00213324 0.00296743 0
-0.00278553 0.00334629 0
-0.00349371 0.00366756 0
-0.00424603 0.00393113 0
-0.00503073 0.00413686 0
-0.00583913 0.0042882 0
-0.00666257 0.00438856 0
-0.00749337 0.00444258 0
-0.00832385 0.00445493 0
-0.00914853 0.00443048 0
-0.00996196 0.00437413 0
-0.0107599 0.00429019 0
-0.0115382 0.00418297 0
-0.0122938 0.00405601 0
-0.0130239 0.00391284 0
-0.0137265 0.00375614 0
-0.0143993 0.0035886 0
-0.015041 0.00341215 0
-0.0156502 0.00322874 0
-0.0162259 0.00303971 0
-0.016767 0.00284642 0
-0.017273 0.00264975 0
-0.0177432 0.0024506 0
-0.0181771 0.00224954 0
-0.0185742 0.00204713 0
-0.0189343 0.00184372 0
-0.019257 0.00163966 0
-0.0195422 0.00143513 0
-0.0197897 0.00123034 0
-0.0199993 0.00102537 0
-0.0201709 0.000820332 0
-0.0203045 0.00061525 0
-0.0204 0.000410164 0
-0.0204573 0.000205079 0
-0.0204764 7.61331e-17 0
-0.0204573 -0.000205079 0
-0.0204 -0.000410164 0
-0.0203045 -0.00061525 0
-0.0201709 -0.000820332 0
-0.0199993 -0.00102537 0
-0.0197897 -0.00123034 0
-0.0195422 -0.00143513 0
-0.019257 -0.00163966 0
-0.0189343 -0.00184372 0
-0.0185742 -0.00204713 0
-0.0181771 -0.00224954 0
-0.0177432 -0.0024506 0
-0.017273 -0.00264975 0
-0.016767 -0.00284642 0
-0.0162259 -0.00303971 0
-0.0156502 -0.00322874 0
-0.015041 -0.00341215 0
-0.0143993 -0.0035886 0
-0.0137265 -0.00375614 0
-0.0130239 -0.00391284 0
-0.0122938 -0.00405601 0
-0.0115382 -0.00418297 0
-0.0107599 -0.00429019 0
-0.00996196 -0.00437413 0
-0.00914853 -0.00443048 0
-0.00832385 -0.00445493 0
-0.00749337 -0.00444258 0
-0.00666257 -0.00438856 0
-0.00583913 -0.0042882 0
-0.00503073 -0.00413686 0
-0.00424603 -0.00393113 0
-0.00349371 -0.00366756 0
-0.00278553 -0.00334629 0
-0.00213324 -0.00296743 0
-0.00154693 -0.00253632 0
-0.00103669 -0.00205832 0
-0.000617698 -0.00154806 0
-0.000305147 -0.00102014 0
-9.91953e-05 -0.00049674 0
0 0 0
0 0 0
-0.00010675 0.000630008 0
-0.000337705 0.00127989 0
-0.000687597 0.001923 0
-0.00115116 0.0025327 0
-0.00171197 0.00309636 0
-0.00235362 0.00360135 0
-0.00306356 0.00404183 0
-0.00382925 0.00441197 0
-0.00463831 0.00471303 0
-0.00547835 0.00494628 0
-0.00634001 0.00511582 0
-0.00721393 0.0052258 0
-0.0080925 0.00528199 0
-0.00896812 0.00529021 0
-0.00983536 0.0052561 0
-0.0106888 0.00518532 0
-0.0115245 0.00508291 0
-0.0123385 0.00495388 0
-0.0131279 0.00480227 0
-0.01389 0.00463206 0
-0.014623 0.00444633 0
-0.0153247 0.00424812 0
-0.0159938 0.00403962 0
-0.016629 0.00382302 0
-0.0172293 0.00359985 0
-0.0177937 0.00337162 0
-0.0183216 0.00313935 0
-0.0188122 0.00290405 0
-0.0192651 0.00266639 0
-0.0196798 0.00242701 0
-0.0200559 0.00218632 0
-0.0203931 0.00194471 0
-0.0206912 0.00170244 0
-0.0209499 0.00145974 0
-0.0211691 0.00121672 0
-0.0213486 0.000973527 0
-0.0214883 0.000730212 0
-0.0215882 0.000486836 0
-0.0216481 0.000243424 0
-0.0216681 3.8019e-18 0
-0.0216481 -0.000243424 0
-0.0215882 -0.000486836 0