<?xml version="1.0"?>
<VTKFile type="UnstructuredGrid">
  <UnstructuredGrid>
  <Piece NumberOfPoints="961"  NumberOfCells="225">
    <Points>
      <DataArray type="Float64" NumberOfComponents="3" format="ascii">
0 0 0
0.0333333 0 0
0.0666667 0 0
0.1 0 0
0.133333 0 0
0.166667 0 0
0.2 0 0
0.233333 0 0
0.266667 0 0
0.3 0 0
0.333333 0 0
0.366667 0 0
0.4 0 0
0.433333 0 0
0.466667 0 0
0.5 0 0
0.533333 0 0
0.566667 0 0
0.6 0 0
0.633333 0 0
0.666667 0 0
0.7 0 0
0.733333 0 0
0.766667 0 0
0.8 0 0
0.833333 0 0
0.866667 0 0
0.9 0 0
0.933333 0 0
0.966667 0 0
1 0 0
0 0.0333333 0
0.0333333 0.0333333 0
0.0666667 0.0333333 0
0.1 0.0333333 0
0.133333 0.0333333 0
0.166667 0.0333333 0
0.2 0.0333333 0
0.233333 0.0333333 0
0.266667 0.0333333 0
0.3 0.0333333 0
0.333333 0.0333333 0
0.366667 0.0333333 0
0.4 0.0333333 0
0.433333 0.0333333 0
0.466667 0.0333333 0
0.5 0.0333333 0
0.533333 0.0333333 0
0.566667 0.0333333 0
0.6 0.0333333 0
0.633333 0.0333333 0
0.666667 0.0333333 0
0.7 0.0333333 0
0.733333 0.0333333 0
0.766667 0.0333333 0
0.8 0.0333333 0
0.833333 0.0333333 0
0.866667 0.0333333 0
0.9 0.0333333 0
0.933333 0.0333333 0
0.966667 0.0333333 0
1 0.0333333 0
0 0.0666667 0
0.0333333 0.0666667 0
0.0666667 0.0666667 0
0.1 0.0666667 0
0.133333 0.0666667 0
0.166667 0.0666667 0
0.2 0.0666667 0
0.233333 0.0666667 0
0.266667 0.0666667 0
0.3 0.0666667 0
0.333333 0.0666667 0
0.366667 0.0666667 0
0.4 0.0666667 0
0.433333 0.0666667 0
0.466667 0.0666667 0
0.5 0.0666667 0
0.533333 0.0666667 0
0.566667 0.0666667 0
0.6 0.0666667 0
0.633333 0.0666667 0
0.666667 0.0666667 0
0.7 0.0666667 0
0.733333 0.0666667 0
0.766667 0.0666667 0
0.8 0.0666667 0
0.833333 0.0666667 0
0.866667 0.0666667 0
0.9 0.0666667 0
0.933333 0.0666667 0
0.966667 0.0666667 0
1 0.0666667 0
0 0.1 0
0.0333333 0.1 0
0.0666667 0.1 0
0.1 0.1 0
0.133333 0.1 0
0.166667 0.1 0
0.2 0.1 0
0.233333 0.1 0
0.266667 0.1 0
0.3 0.1 0
0.333333 0.1 0
0.366667 0.1 0
0.4 0.1 0
0.433333 0.1 0
0.466667 0.1 0
0.5 0.1 0
0.533333 0.1 0
0.566667 0.1 0
0.6 0.1 0
0.633333 0.1 0
0.666667 0.1 0
0.7 0.1 0
0.733333 0.1 0
0.766667 0.1 0
0.8 0.1 0
0.833333 0.1 0
0.866667 0.1 0
0.9 0.1 0
0.933333 0.1 0
0.966667 0.1 0
1 0.1 0
0 0.133333 0
0.0333333 0.133333 0
0.0666667 0.133333 0
0.1 0.133333 0
0.133333 0.133333 0
0.166667 0.133333 0
0.2 0.133333 0
0.233333 0.133333 0
0.266667 0.133333 0
0.3 0.133333 0
0.333333 0.133333 0
0.366667 0.133333 0
0.4 0.133333 0
0.433333 0.133333 0
0.466667 0.133333 0
0.5 0.133333 0
0.533333 0.133333 0
0.566667 0.133333 0
0.6 0.133333 0
0.633333 0.133333 0
0.666667 0.133333 0
0.7 0.133333 0
0.733333 0.133333 0
0.766667 0.133333 0
0.8 0.133333 0
0.833333 0.133333 0
0.866667 0.133333 0
0.9 0.133333 0
0.933333 0.133333 0
0.966667 0.133333 0
1 0.133333 0
0 0.166667 0
0.0333333 0.166667 0
0.0666667 0.166667 0
0.1 0.166667 0
0.133333 0.166667 0
0.166667 0.166667 0
0.2 0.166667 0
0.233333 0.166667 0
0.266667 0.166667 0
0.3 0.166667 0
0.333333 0.166667 0
0.366667 0.166667 0
0.4 0.166667 0
0.433333 0.166667 0
0.466667 0.166667 0
0.5 0.166667 0
0.533333 0.166667 0
0.566667 0.166667 0
0.6 0.166667 0
0.633333 0.166667 0
0.666667 0.166667 0
0.7 0.166667 0
0.733333 0.166667 0
0.766667 0.166667 0
0.8 0.166667 0
0.833333 0.166667 0
0.866667 0.166667 0
0.9 0.166667 0
0.933333 0.166667 0
0.966667 0.166667 0
1 0.166667 0
0 0.2 0
0.0333333 0.2 0
0.0666667 0.2 0
0.1 0.2 0
0.133333 0.2 0
0.166667 0.2 0
0.2 0.2 0
0.233333 0.2 0
0.266667 0.2 0
0.3 0.2 0
0.333333 0.2 0
0.366667 0.2 0
0.4 0.2 0
0.433333 0.2 0
0.466667 0.2 0
0.5 0.2 0
0.533333 0.2 0
0.566667 0.2 0
0.6 0.2 0
0.633333 0.2 0
0.666667 0.2 0
0.7 0.2 0
0.733333 0.2 0
0.766667 0.2 0
0.8 0.2 0
0.833333 0.2 0
0.866667 0.2 0
0.9 0.2 0
0.933333 0.2 0
0.966667 0.2 0
1 0.2 0
0 0.233333 0
0.0333333 0.233333 0
0.0666667 0.233333 0
0.1 0.233333 0
0.133333 0.233333 0
0.166667 0.233333 0
0.2 0.233333 0
0.233333 0.233333 0
0.266667 0.233333 0
0.3 0.233333 0
0.333333 0.233333 0
0.366667 0.233333 0
0.4 0.233333 0
0.433333 0.233333 0
0.466667 0.233333 0
0.5 0.233333 0
0.533333 0.233333 0
0.566667 0.233333 0
0.6 0.233333 0
0.633333 0.233333 0
0.666667 0.233333 0
0.7 0.233333 0
0.733333 0.233333 0
0.766667 0.233333 0
0.8 0.233333 0
0.833333 0.233333 0
0.866667 0.233333 0
0.9 0.233333 0
0.933333 0.233333 0
0.966667 0.233333 0
1 0.233333 0
0 0.266667 0
0.0333333 0.266667 0
0.0666667 0.266667 0
0.1 0.266667 0
0.133333 0.266667 0
0.166667 0.266667 0
0.2 0.266667 0
0.233333 0.266667 0
0.266667 0.266667 0
0.3 0.266667 0
0.333333 0.266667 0
0.366667 0.266667 0
0.4 0.266667 0
0.433333 0.266667 0
0.466667 0.266667 0
0.5 0.266667 0
0.533333 0.266667 0
0.566667 0.266667 0
0.6 0.266667 0
0.633333 0.266667 0
0.666667 0.266667 0
0.7 0.266667 0
0.733333 0.266667 0
0.766667 0.266667 0
0.8 0.266667 0
0.833333 0.266667 0
0.866667 0.266667 0
0.9 0.266667 0
0.933333 0.266667 0
0.966667 0.266667 0
1 0.266667 0
0 0.3 0
0.0333333 0.3 0
0.0666667 0.3 0
0.1 0.3 0
0.133333 0.3 0
0.166667 0.3 0
0.2 0.3 0
0.233333 0.3 0
0.266667 0.3 0
0.3 0.3 0
0.333333 0.3 0
0.366667 0.3 0
0.4 0.3 0
0.433333 0.3 0
0.466667 0.3 0
0.5 0.3 0
0.533333 0.3 0
0.566667 0.3 0
0.6 0.3 0
0.633333 0.3 0
0.666667 0.3 0
0.7 0.3 0
0.733333 0.3 0
0.766667 0.3 0
0.8 0.3 0
0.833333 0.3 0
0.866667 0.3 0
0.9 0.3 0
0.933333 0.3 0
0.966667 0.3 0
1 0.3 0
0 0.333333 0
0.0333333 0.333333 0
0.0666667 0.333333 0
0.1 0.333333 0
0.133333 0.333333 0
0.166667 0.333333 0
0.2 0.333333 0
0.233333 0.333333 0
0.266667 0.333333 0
0.3 0.333333 0
0.333333 0.333333 0
0.366667 0.333333 0
0.4 0.333333 0
0.433333 0.333333 0
0.466667 0.333333 0
0.5 0.333333 0
0.533333 0.333333 0
0.566667 0.333333 0
0.6 0.333333 0
0.633333 0.333333 0
0.666667 0.333333 0
0.7 0.333333 0
0.733333 0.333333 0
0.766667 0.333333 0
0.8 0.333333 0
0.833333 0.333333 0
0.866667 0.333333 0
0.9 0.333333 0
0.933333 0.333333 0
0.966667 0.333333 0
1 0.333333 0
0 0.366667 0
0.0333333 0.366667 0
0.0666667 0.366667 0
0.1 0.366667 0
0.133333 0.366667 0
0.166667 0.366667 0
0.2 0.366667 0
0.233333 0.366667 0
0.266667 0.366667 0
0.3 0.366667 0
0.333333 0.366667 0
0.366667 0.366667 0
0.4 0.366667 0
0.433333 0.366667 0
0.466667 0.366667 0
0.5 0.366667 0
0.533333 0.366667 0
0.566667 0.366667 0
0.6 0.366667 0
0.633333 0.366667 0
0.666667 0.366667 0
0.7 0.366667 0
0.733333 0.366667 0
0.766667 0.366667 0
0.8 0.366667 0
0.833333 0.366667 0
0.866667 0.366667 0
0.9 0.366667 0
0.933333 0.366667 0
0.966667 0.366667 0
1 0.366667 0
0 0.4 0
0.0333333 0.4 0
0.0666667 0.4 0
0.1 0.4 0
0.133333 0.4 0
0.166667 0.4 0
0.2 0.4 0
0.233333 0.4 0
0.266667 0.4 0
0.3 0.4 0
0.333333 0.4 0
0.366667 0.4 0
0.4 0.4 0
0.433333 0.4 0
0.466667 0.4 0
0.5 0.4 0
0.533333 0.4 0
0.566667 0.4 0
0.6 0.4 0
0.633333 0.4 0
0.666667 0.4 0
0.7 0.4 0
0.733333 0.4 0
0.766667 0.4 0
0.8 0.4 0
0.833333 0.4 0
0.866667 0.4 0
0.9 0.4 0
0.933333 0.4 0
0.966667 0.4 0
1 0.4 0
0 0.433333 0
0.0333333 0.433333 0
0.0666667 0.433333 0
0.1 0.433333 0
0.133333 0.433333 0
0.166667 0.433333 0
0.2 0.433333 0
0.233333 0.433333 0
0.266667 0.433333 0
0.3 0.433333 0
0.333333 0.433333 0
0.366667 0.433333 0
0.4 0.433333 0
0.433333 0.433333 0
0.466667 0.433333 0
0.5 0.433333 0
0.533333 0.433333 0
0.566667 0.433333 0
0.6 0.433333 0
0.633333 0.433333 0
0.666667 0.433333 0
0.7 0.433333 0
0.733333 0.433333 0
0.766667 0.433333 0
0.8 0.433333 0
0.833333 0.433333 0
0.866667 0.433333 0
0.9 0.433333 0
0.933333 0.433333 0
0.966667 0.433333 0
1 0.433333 0
0 0.466667 0
0.0333333 0.466667 0
0.0666667 0.466667 0
0.1 0.466667 0
0.133333 0.466667 0
0.166667 0.466667 0
0.2 0.466667 0
0.233333 0.466667 0
0.266667 0.466667 0
0.3 0.466667 0
0.333333 0.466667 0
0.366667 0.466667 0
0.4 0.466667 0
0.433333 0.466667 0
0.466667 0.466667 0
0.5 0.466667 0
0.533333 0.466667 0
0.566667 0.466667 0
0.6 0.466667 0
0.633333 0.466667 0
0.666667 0.466667 0
0.7 0.466667 0
0.733333 0.466667 0
0.766667 0.466667 0
0.8 0.466667 0
0.833333 0.466667 0
0.866667 0.466667 0
0.9 0.466667 0
0.933333 0.466667 0
0.966667 0.466667 0
1 0.466667 0
0 0.5 0
0.0333333 0.5 0
0.0666667 0.5 0
0.1 0.5 0
0.133333 0.5 0
0.166667 0.5 0
0.2 0.5 0
0.233333 0.5 0
0.266667 0.5 0
0.3 0.5 0
0.333333 0.5 0
0.366667 0.5 0
0.4 0.5 0
0.433333 0.5 0
0.466667 0.5 0
0.5 0.5 0
0.533333 0.5 0
0.566667 0.5 0
0.6 0.5 0
0.633333 0.5 0
0.666667 0.5 0
0.7 0.5 0
0.733333 0.5 0
0.766667 0.5 0
0.8 0.5 0
0.833333 0.5 0
0.866667 0.5 0
0.9 0.5 0
0.933333 0.5 0
0.966667 0.5 0
1 0.5 0
0 0.533333 0
0.0333333 0.533333 0
0.0666667 0.533333 0
0.1 0.533333 0
0.133333 0.533333 0
0.166667 0.533333 0
0.2 0.533333 0
0.233333 0.533333 0
0.266667 0.533333 0
0.3 0.533333 0
0.333333 0.533333 0
0.366667 0.533333 0
0.4 0.533333 0
0.433333 0.533333 0
0.466667 0.533333 0
0.5 0.533333 0
0.533333 0.533333 0
0.566667 0.533333 0
0.6 0.533333 0
0.633333 0.533333 0
0.666667 0.533333 0
0.7 0.533333 0
0.733333 0.533333 0
0.766667 0.533333 0
0.8 0.533333 0
0.833333 0.533333 0
0.866667 0.533333 0
0.9 0.533333 0
0.933333 0.533333 0
0.966667 0.533333 0
1 0.533333 0
0 0.566667 0
0.0333333 0.566667 0
0.0666667 0.566667 0
0.1 0.566667 0
0.133333 0.566667 0
0.166667 0.566667 0
0.2 0.566667 0
0.233333 0.566667 0
0.266667 0.566667 0
0.3 0.566667 0
0.333333 0.566667 0
0.366667 0.566667 0
0.4 0.566667 0
0.433333 0.566667 0
0.466667 0.566667 0
0.5 0.566667 0
0.533333 0.566667 0
0.566667 0.566667 0
0.6 0.566667 0
0.633333 0.566667 0
0.666667 0.566667 0
0.7 0.566667 0
0.733333 0.566667 0
0.766667 0.566667 0
0.8 0.566667 0
0.833333 0.566667 0
0.866667 0.566667 0
0.9 0.566667 0
0.933333 0.566667 0
0.966667 0.566667 0
1 0.566667 0
0 0.6 0
0.0333333 0.6 0
0.0666667 0.6 0
0.1 0.6 0
0.133333 0.6 0
0.166667 0.6 0
0.2 0.6 0
0.233333 0.6 0
0.266667 0.6 0
0.3 0.6 0
0.333333 0.6 0
0.366667 0.6 0
0.4 0.6 0
0.433333 0.6 0
0.466667 0.6 0
0.5 0.6 0
0.533333 0.6 0
0.566667 0.6 0
0.6 0.6 0
0.633333 0.6 0
0.666667 0.6 0
0.7 0.6 0
0.733333 0.6 0
0.766667 0.6 0
0.8 0.6 0
0.833333 0.6 0
0.866667 0.6 0
0.9 0.6 0
0.933333 0.6 0
0.966667 0.6 0
1 0.6 0
0 0.633333 0
0.0333333 0.633333 0
0.0666667 0.633333 0
0.1 0.633333 0
0.133333 0.633333 0
0.166667 0.633333 0
0.2 0.633333 0
0.233333 0.633333 0
0.266667 0.633333 0
[...]
    <PointData>
      <DataArray type="Float64" NumberOfComponents="3" Name="Velocity" format="ascii">
0 0 0
0 0 0
0 0 0
0 0 0
0 0 0
0 0 0
0 0 0
0 0 0
0 0 0
0 0 0
0 0 0
0 0 0
0 0 0
0 0 0
0 0 0
0 0 0
0 0 0
0 0 0
0 0 0
0 0 0
0 0 0
0 0 0
0 0 0
0 0 0
0 0 0
0 0 0
0 0 0
0 0 0
0 0 0
0 0 0
0 0 0
0 0 0
-0.000496627 0.00044951 0
-0.0015161 0.0010114 0
-0.00320618 0.001564 0
-0.00571464 0.00198561 0
-0.00869321 0.00223544 0
-0.0117936 0.00227264 0
-0.0148885 0.0021748 0
-0.0178503 0.00201946 0
-0.0205688 0.0018067 0
-0.0229334 0.00153655 0
-0.0249046 0.00123063 0
-0.0264428 0.000910537 0
-0.0275209 0.00057705 0
-0.0281116 0.000230955 0
-0.0282074 -0.000120746 0
-0.0278005 -0.000471053 0
-0.0269077 -0.000808246 0
-0.0255455 -0.00112061 0
-0.0237569 -0.00140827 0
-0.0215847 -0.00167136 0
-0.0190836 -0.00188364 0
-0.0163083 -0.00201885 0
-0.0133826 -0.00209036 0
-0.0104305 -0.00211156 0
-0.00754981 -0.00201608 0
-0.00483851 -0.0017376 0
-0.00260378 -0.00131892 0
-0.0011528 -0.000802841 0
-0.000335056 -0.000319746 0
0 0 0
0 0 0
-0.000761777 0.00117178 0
-0.00320946 0.00289446 0
-0.00702904 0.00460467 0
-0.0119065 0.00573906 0
-0.0174137 0.00636215 0
-0.0231225 0.00653841 0
-0.0287735 0.00636654 0
-0.0341074 0.00594523 0
-0.0389759 0.00532791 0
-0.0432307 0.00456799 0
-0.0467922 0.00370204 0
-0.0495809 0.00276663 0
-0.0515409 0.0017746 0
-0.0526162 0.000738788 0
-0.0527915 -0.00031556 0
-0.052051 -0.00136321 0
-0.0504213 -0.00237504 0
-0.0479288 -0.00332192 0
-0.0446577 -0.00418283 0
-0.0406926 -0.00493676 0
-0.03615 -0.00555079 0
-0.0311467 -0.00599206 0
-0.0258486 -0.00622023 0
-0.0204217 -0.00619495 0
-0.0151222 -0.00586059 0
-0.010206 -0.00516148 0
-0.00597354 -0.00404245 0
-0.00272517 -0.00244836 0
-0.000665714 -0.000920461 0
0 0 0
0 0 0
-0.00135992 0.00309264 0
-0.00532468 0.00666204 0
-0.0111467 0.00988845 0
-0.0180785 0.0119521 0
-0.025685 0.0130311 0
-0.0335314 0.0133034 0
-0.0412643 0.0129237 0
-0.0485305 0.0120466 0
-0.0551618 0.0107886 0
-0.0609903 0.00926613 0
-0.0658907 0.00753115 0
-0.0697377 0.00563571 0
-0.0724503 0.00361582 0
-0.0739478 0.00150747 0
-0.0742059 -0.000638861 0
-0.0732006 -0.00277269 0
-0.0709691 -0.00483588 0
-0.0675485 -0.00677026 0
-0.0630555 -0.00852031 0
-0.0576069 -0.0100305 0
-0.0513817 -0.0112579 0
-0.0445589 -0.0121598 0
-0.0373256 -0.0126439 0
-0.0298692 -0.0126181 0
-0.0225473 -0.0120059 0
-0.0157177 -0.0107311 0
-0.00965913 -0.00866858 0
-0.00465058 -0.00569315 0
-0.00124615 -0.00255393 0
0 0 0
0 0 0
-0.00285552 0.00713791 0
-0.00810631 0.013327 0
-0.0152373 0.0181818 0
-0.0237334 0.0213165 0
-0.0330307 0.0228931 0
-0.0425653 0.0230737 0
-0.0519703 0.0221947 0
-0.060879 0.020593 0
-0.0690671 0.0184139 0
-0.0763106 0.0158028 0
-0.0824276 0.0128349 0
-0.0872363 0.00958521 0
-0.0906395 0.00612388 0
-0.0925401 0.00252096 0
-0.0929044 -0.00114507 0
-0.0916985 -0.00479571 0
-0.0889793 -0.00832624 0
-0.0848032 -0.0116319 0
-0.0793028 -0.0146173 0
-0.0726106 -0.0171868 0
-0.0649611 -0.0192614 0
-0.0565885 -0.0207621 0
-0.0477415 -0.0216156 0
-0.0386684 -0.0217487 0
-0.0296554 -0.0209245 0
-0.0209887 -0.0189061 0
-0.0132104 -0.0156953 0
-0.0068625 -0.0112938 0
-0.00233053 -0.00597195 0
0 0 0
0 0 0
-0.0040062 0.0117 0
-0.010594 0.0207589 0
-0.0191904 0.0273151 0
-0.0292226 0.0315072 0
-0.0400476 0.0335559 0
-0.0510223 0.033682 0
-0.0618198 0.0323603 0
-0.0721131 0.0300656 0
-0.0816192 0.0269553 0
-0.0900549 0.0231866 0
-0.0972057 0.0188749 0
-0.102857 0.0141355 0
-0.106888 0.00907084 0
-0.109178 0.00378316 0
-0.109675 -0.00160755 0
-0.108324 -0.00698133 0
-0.105194 -0.0121781 0
-0.100354 -0.0170379 0
-0.0939612 -0.0214201 0
-0.0861739 -0.0251844 0
-0.0772683 -0.0282006 0
-0.0675206 -0.0303389 0
-0.0572561 -0.0315634 0
-0.0467997 -0.0318383 0
-0.0363612 -0.0308137 0
-0.0261502 -0.0281398 0
-0.016824 -0.0237982 0
-0.00903996 -0.0177705 0
-0.00327348 -0.00989255 0
0 0 0
0 0 0
-0.00356959 0.0151713 0
-0.0118273 0.026827 0
-0.0228957 0.0351189 0
-0.0348974 0.0401991 0
-0.0473322 0.0426268 0
-0.0597004 0.0429612 0
-0.071741 0.0416012 0
-0.0831933 0.038946 0
-0.0937456 0.0351646 0
-0.103086 0.0304261 0
-0.111028 0.0249128 0
-0.117381 0.018807 0
-0.121977 0.0122287 0
-0.124648 0.005298 0
-0.125304 -0.00179965 0
-0.123856 -0.00887865 0
-0.120357 -0.0157236 0
-0.114862 -0.0221189 0
-0.107592 -0.027875 0
-0.0987667 -0.0328019 0
-0.0886835 -0.0367151 0
-0.0776402 -0.0394303 0
-0.0660293 -0.0409152 0
-0.0542435 -0.0411381 0
-0.0425793 -0.0398709 0
-0.0313331 -0.0368856 0
-0.0206966 -0.0316529 0
-0.010862 -0.0236435 0
-0.00342958 -0.0130338 0
0 0 0
0 0 0
-0.00321977 0.0213064 0
-0.0125887 0.0365922 0
-0.0253502 0.046759 0
-0.0387477 0.0527083 0
-0.0524967 0.0553727 0
-0.0663125 0.0556849 0
-0.0798201 0.0539756 0
-0.0926449 0.0505756 0
-0.104466 0.0457211 0
-0.114964 0.0396483 0
-0.12394 0.032571 0
-0.131196 0.0247032 0
-0.136517 0.0161845 0
-0.13969 0.00715475 0
-0.140594 -0.00213585 0
-0.139112 -0.011437 0
-0.135286 -0.0204452 0
-0.129156 -0.0288572 0
-0.120981 -0.0364175 0
-0.11102 -0.0428709 0
-0.0996059 -0.0479873 0
-0.087073 -0.0515365 0
-0.0738748 -0.0534285 0
-0.0604648 -0.0535733 0
-0.0473715 -0.0519289 0
-0.0351233 -0.0484536 0
-0.0234552 -0.0423066 0
-0.0121021 -0.0326473 0
-0.00347875 -0.0187777 0
0 0 0
0 0 0
-0.00463079 0.0338597 0
-0.0136604 0.0551156 0
-0.0255508 0.0674013 0
-0.038764 0.0743507 0
-0.0531531 0.0770603 0
-0.0685713 0.0766269 0
-0.0841432 0.0735417 0
-0.0989935 0.0682961 0
-0.112801 0.0613042 0
-0.125246 0.05298 0
-0.135989 0.0434717 0
-0.14469 0.0329274 0
-0.151119 0.0215252 0
-0.155043 0.00944272 0
-0.156346 -0.00303062 0
-0.154912 -0.0156056 0
-0.150799 -0.0278257 0
-0.144062 -0.0392346 0
-0.134914 -0.0494832 0
-0.123564 -0.058223 0
-0.110434 -0.0651994 0
-0.0959449 -0.0701581 0
-0.0806063 -0.0728607 0
-0.0649286 -0.0730688 0
-0.0497996 -0.0708206 0
-0.036107 -0.0661539 0
-0.0237265 -0.0588067 0
-0.0125337 -0.0485164 0
-0.0041009 -0.0305064 0
0 0 0
0 0 0
-0.00533855 0.0434552 0
-0.0133005 0.0696411 0
-0.0238114 0.084176 0
-0.0367966 0.0926779 0
-0.0518341 0.0961228 0
-0.0685021 0.0954868 0
-0.0856345 0.0915042 0
-0.102065 0.0849094 0
-0.11745 0.0762297 0
-0.131446 0.0659927 0
-0.1436 0.0543078 0
-0.153456 0.0412843 0
-0.160786 0.0271643 0
-0.165357 0.0121896 0
-0.167062 -0.00330553 0
-0.165792 -0.0189869 0
-0.161604 -0.0342741 0
-0.154555 -0.0485867 0
-0.1448 -0.0614696 0
-0.132493 -0.0724676 0
-0.118107 -0.0812726 0
-0.102113 -0.0875764 0
-0.0850763 -0.091003 0
-0.0675588 -0.0911766 0
-0.0506711 -0.0880971 0
-0.0355232 -0.0817646 0
-0.0225003 -0.0726797 0
-0.0119872 -0.0613428 0
-0.00436136 -0.0397756 0
0 0 0
0 0 0
-0.0028789 0.0407168 0
-0.00976721 0.0674131 0
-0.0204459 0.0842132 0
-0.0346961 0.0952413 0
-0.0510724 0.100993 0
-0.06813 0.101964 0
-0.0852181 0.0990682 0
-0.101686 0.0932175 0
-0.117114 0.0848135 0
-0.131079 0.0742578 0
-0.143197 0.0617722 0
-0.153084 0.0475785 0
-0.160518 0.0320159 0
-0.165279 0.0154232 0
-0.167243 -0.00178221 0
-0.166286 -0.0191834 0
-0.162409 -0.0361994 0
-0.155607 -0.0522493 0
-0.146049 -0.066774 0
-0.133899 -0.0792145 0
-0.11956 -0.0891282 0
-0.103435 -0.0960728 0
-0.0861374 -0.0996467 0
-0.0682796 -0.0994483 0
-0.0507937 -0.0953099 0
-0.0346114 -0.0870638 0
-0.0207664 -0.0754524 0
-0.0102927 -0.0612183 0
-0.00332546 -0.038141 0
0 0 0
0 0 0
-0.00105963 0.0342716 0
-0.00761895 0.060159 0
-0.0189095 0.0791991 0
-0.0341628 0.0929288 0
-0.051237 0.101375 0
-0.06799 0.104565 0
-0.0843225 0.103446 0
-0.100135 0.0989633 0
-0.114928 0.0913801 0
-0.128203 0.0809585 0
-0.139687 0.0680923 0
-0.149111 0.0531753 0
-0.156271 0.0366385 0
-0.160962 0.0189125 0
-0.163054 0.00049858 0
-0.162416 -0.0181021 0
-0.159004 -0.0363501 0
-0.152775 -0.0537058 0
-0.143892 -0.0695387 0
-0.132519 -0.0832186 0
-0.118946 -0.0941333 0
-0.103463 -0.101671 0
-0.086692 -0.105409 0
-0.0692576 -0.104926 0
-0.0518329 -0.0998655 0
-0.035091 -0.0898702 0
-0.0205314 -0.0755631 0
-0.00965331 -0.0575666 0
-0.00272131 -0.0332544 0
0 0 0
0 0 0
-0.00368852 0.0327467 0
-0.0114143 0.0596064 0
-0.0226573 0.0808201 0
-0.0368974 0.0966286 0
-0.0526967 0.106973 0
-0.0686173 0.111795 0
-0.0843761 0.111849 0
-0.09969 0.10789 0
-0.114033 0.100254 0
-0.126878 0.089278 0
-0.137975 0.0754955 0
-0.147075 0.0594403 0
-0.153996 0.041591 0
-0.158558 0.0224264 0
-0.160659 0.00249603 0
-0.160199 -0.0176505 0
-0.157182 -0.0374751 0
-0.151615 -0.0564398 0
-0.143562 -0.0739059 0
-0.133091 -0.0892349 0
-0.120415 -0.101655 0
-0.105746 -0.110395 0
-0.0896424 -0.114909 0
-0.0726594 -0.114653 0
-0.0554538 -0.10917 0
-0.0386818 -0.0980026 0
-0.0238018 -0.0814497 0
-0.0122722 -0.059811 0
-0.00427701 -0.0327674 0
0 0 0
0 0 0
-0.00688103 0.0355069 0
-0.0160936 0.0652538 0
-0.0274232 0.0890597 0
-0.0406553 0.106744 0
-0.0552719 0.118405 0
-0.0707553 0.124143 0
-0.0864327 0.124558 0
-0.101632 0.12025 0
-0.115834 0.111736 0
-0.12852 0.0995329 0
-0.13945 0.0842747 0
-0.148385 0.0665964 0
-0.155174 0.0470041 0
-0.159666 0.0260036 0
-0.161799 0.00415457 0
-0.161509 -0.0179837 0
-0.158852 -0.0398507 0
-0.153883 -0.0608856 0
-0.146557 -0.0804408 0
-0.136828 -0.0978683 0
-0.12483 -0.112272 0
-0.110702 -0.122754 0
-0.0949174 -0.128589 0
-0.0779492 -0.129047 0
-0.0605452 -0.123548 0
-0.0434531 -0.111508 0
-0.0279794 -0.0928834 0
-0.0154306 -0.067629 0
-0.00602971 -0.0364373 0
0 0 0
0 0 0
-0.00675264 0.0419173 0
-0.0165973 0.0765997 0
-0.0289413 0.103902 0
-0.0431921 0.123677 0
-0.058783 0.136289 0
-0.0751473 0.142097 0
-0.0915462 0.14185 0
-0.107241 0.136296 0
-0.121738 0.126128 0
-0.134546 0.11204 0
-0.145504 0.0947232 0
-0.154454 0.0748671 0
-0.161285 0.0530082 0
-0.165887 0.0296829 0
-0.168213 0.00541864 0
-0.168218 -0.0192572 0
-0.165921 -0.043753 0
-0.161339 -0.0674776 0
-0.154378 -0.0897085 0
-0.144942 -0.109724 0
-0.133057 -0.126561 0
-0.118746 -0.139259 0
-0.102446 -0.14689 0
-0.0845912 -0.148526 0
-0.0659959 -0.143322 0
-0.0474746 -0.130434 0
-0.0304661 -0.109635 0
-0.0164094 -0.0806982 0
-0.00601657 -0.0440209 0
0 0 0
0 0 0
-0.00552394 0.049586 0
-0.0157028 0.0899575 0
-0.0293467 0.121099 0
-0.0452658 0.142993 0
-0.0624797 0.156332 0
-0.080008 0.161806 0
-0.0971691 0.160436 0
-0.113282 0.153245 0
-0.127928 0.141109 0
-0.140692 0.12491 0
-0.151512 0.105373 0
-0.160326 0.0832249 0
-0.167084 0.0590264 0
-0.171738 0.0333372 0
-0.174254 0.00663766 0
-0.174599 -0.0205918 0
-0.172726 -0.0477509 0
-0.168586 -0.0742392 0
-0.162043 -0.0992607 0
-0.152963 -0.12202 0
-0.141257 -0.141507 0
-0.126835 -0.156716 0
-0.110065 -0.166482 0
-0.0913126 -0.169641 0
-0.0714372 -0.16502 0
-0.0512981 -0.151444 0
-0.0325526 -0.128473 0
-0.016858 -0.0956646 0
-0.0055589 -0.052885 0
0 0 0
0 0 0
-0.00541555 0.0561212 0
-0.0161877 0.101641 0
-0.0307745 0.136404 0
-0.0476343 0.160255 0
-0.0656118 0.174244 0
-0.0835518 0.179417 0
-0.100754 0.177024 0
-0.116519 0.168313 0
-0.130586 0.154363 0
-0.142697 0.136253 0
-0.152851 0.114756 0
-0.161046 0.0906429 0
-0.167327 0.0644819 0
-0.171738 0.0368396 0
-0.174273 0.00816106 0
-0.174924 -0.0211089 0
-0.173604 -0.050413 0
-0.170227 -0.0791939 0
-0.164571 -0.106649 0
-0.156417 -0.131975 0
-0.145593 -0.154095 0
-0.131926 -0.171932 0
-0.115611 -0.184032 0
-0.0968406 -0.188944 0
-0.0765004 -0.185167 0
-0.0554755 -0.171202 0
-0.0355294 -0.146166 0
-0.0184257 -0.109174 0
-0.00597802 -0.0603965 0
0 0 0
0 0 0
-0.00584472 0.0628715 0
-0.0173454 0.113444 0
-0.0327015 0.15157 0
-0.0501124 0.177102 0
-0.0683001 0.19145 0
-0.0859865 0.196023 0
-0.10251 0.192362 0
-0.117207 0.182007 0
-0.129995 0.166215 0
-0.140785 0.146243 0
-0.149668 0.122924 0
-0.156733 0.0970908 0
-0.162126 0.069289 0
-0.165994 0.0400652 0
-0.16837 0.00981978 0
-0.169286 -0.021047 0
-0.168629 -0.0520578 0
-0.166289 -0.0827355 0
-0.161954 -0.112329 0
-0.155314 -0.140088 0
-0.146083 -0.164852 0
-0.133977 -0.185462 0
-0.118976 -0.200196 0
-0.101061 -0.20733 0
-0.0810304 -0.20493 0
-0.0596837 -0.191059 0
-0.0388879 -0.16429 0
-0.0205103 -0.123195 0
-0.00679846 -0.068267 0
0 0 0
0 0 0
-0.00622874 0.0711853 0
-0.0184695 0.12716 0
-0.0346042 0.168347 0
-0.052515 0.195169 0
-0.0706656 0.209375 0
-0.0875196 0.212715 0
-0.102644 0.207197 0
-0.115604 0.194831 0
-0.126438 0.176993 0
-0.135181 0.155055 0
-0.14211 0.129932 0
-0.147503 0.102539 0
-0.151593 0.0733621 0
-0.154613 0.0428889 0
-0.156647 0.0114447 0
-0.157779 -0.0206448 0
-0.157874 -0.0530041 0
-0.156799 -0.0852576 0
-0.154185 -0.116757 0
-0.149665 -0.146853 0
-0.142748 -0.174304 0
-0.132946 -0.197865 0
-0.120052 -0.215632 0
-0.103858 -0.225699 0
-0.0848719 -0.225474 0
-0.0635996 -0.212366 0
-0.0421195 -0.184422 0
-0.0225096 -0.139693 0
-0.00754477 -0.0782081 0
0 0 0
0 0 0
-0.00664439 0.08046 0
-0.0197623 0.142053 0
-0.0366554 0.185964 0
-0.0546258 0.213375 0
-0.0720438 0.226633 0
-0.0872801 0.228085 0
-0.100142 0.220212 0
-0.110437 0.205494 0
-0.118402 0.185452 0
-0.124274 0.161608 0
-0.128534 0.134909 0
-0.131662 0.106302 0
-0.133982 0.0761933 0
-0.135813 0.0449902 0
-0.137293 0.012914 0
-0.138558 -0.0198141 0
-0.139469 -0.0529456 0
-0.139884 -0.0862323 0
-0.139393 -0.11916 0
-0.137583 -0.151213 0
-0.13376 -0.181149 0
-0.127228 -0.207723 0
-0.117494 -0.228844 0
-0.104066 -0.24242 0
-0.0871124 -0.245182 0
-0.0668015 -0.233861 0
-0.0452421 -0.205676 0
-0.0245436 -0.157846 0
-0.00827362 -0.0895579 0
0 0 0
0 0 0
-0.00716842 0.0900931 0
-0.0214262 0.157387 0
-0.039028 0.203646 0
-0.0562284 0.230634 0
-0.0717704 0.241834 0
-0.0843971 0.240728 0
-0.0939906 0.230091 0
-0.100433 0.212702 0
-0.104372 0.190349 0
-0.106455 0.164824 0
-0.107298 0.136987 0
-0.107518 0.107696 0
-0.107546 0.0772746 0
-0.107812 0.0460487 0
-0.108497 0.0141057 0
-0.109779 -0.0184665 0
-0.111543 -0.0515762 0
-0.113671 -0.0851315 0
-0.115705 -0.118765 0
-0.117185 -0.152108 0
-0.117294 -0.184085 0
-0.115216 -0.213621 0
-0.109955 -0.23834 0
-0.100516 -0.255866 0
-0.0868393 -0.262436 0
-0.0688674 -0.254283 0
-0.0482739 -0.227164 0
-0.0267325 -0.176832 0
-0.00904165 -0.101655 0
0 0 0
0 0 0
-0.00805216 0.10074 0
-0.0231286 0.173278 0
-0.0407125 0.220702 0
-0.0562872 0.246102 0
-0.068868 0.254153 0
-0.0774701 0.249533 0
-0.082305 0.235488 0
-0.0835838 0.215264 0
-0.0823797 0.190782 0
-0.0797659 0.163965 0
-0.0764689 0.135538 0
-0.0732151 0.106225 0
-0.070522 0.076238 0
-0.0689068 0.0457887 0
-0.0685798 0.0148217 0
-0.0697509 -0.0167182 0
-0.0723471 -0.0489053 0
-0.076295 -0.0818139 0
-0.081121 -0.115258 0
-0.0863514 -0.149051 0
-0.0911081 -0.182363 0
-0.0945127 -0.214365 0
-0.0950816 -0.242604 0
-0.0913309 -0.264627 0
-0.082666 -0.276022 0
-0.0684924 -0.272379 0
-0.0500802 -0.247824 0
-0.0286993 -0.196482 0
-0.0100919 -0.114993 0
0 0 0
0 0 0
-0.00954689 0.113056 0
-0.0245363 0.189843 0
-0.0406992 0.236441 0
-0.0537663 0.258932 0
-0.0623591 0.262765 0
-0.065099 0.253394 0
-0.063201 0.235056 0
-0.0578801 0.211991 0
-0.0504561 0.185852 0
-0.0422493 0.158293 0
-0.034113 0.129934 0
-0.0269003 0.101395 0
-0.0211479 0.072716 0
-0.0173924 0.0439348 0
-0.0158616 0.0148637 0
-0.0167833 -0.0146853 0
-0.0201337 -0.0449425 0
-0.0258894 -0.0761385 0
-0.0336371 -0.108326 0
-0.0429635 -0.141556 0
-0.0529604 -0.175234 0
-0.0627198 -0.208763 0
-0.0705189 -0.240122 0
-0.0746349 -0.26729 0
-0.0732063 -0.284728 0
-0.0643713 -0.286895 0
-0.0495263 -0.266593 0
-0.0300672 -0.216624 0
-0.0116674 -0.130067 0
0 0 0
0 0 0
-0.0104879 0.125726 0
-0.0252483 0.205661 0
-0.0392256 0.249457 0
-0.047364 0.266763 0
-0.0489889 0.264524 0
-0.0434254 0.249684 0
-0.0329031 0.22712 0
-0.0196518 0.20171 0
-0.00512392 0.174679 0
0.00922825 0.147251 0
0.0225116 0.119891 0
0.0338332 0.09306 0
0.0427089 0.0666152 0
0.0486544 0.0404117 0
0.0514504 0.0141491 0
0.0508774 -0.0124729 0
0.0469067 -0.0398128 0
0.03951 -0.0682289 0
0.0289739 -0.0980097 0
0.0155853 -0.129444 0
0.000172417 -0.16221 0
-0.0164367 -0.195989 0
-0.0324929 -0.229417 0
-0.0462471 -0.261132 0
-0.0546409 -0.284998 0
-0.0546159 -0.294875 0
-0.0463958 -0.281463 0
-0.0302041 -0.235458 0
-0.0125643 -0.145442 0
0 0 0
0 0 0
-0.0097105 0.137433 0
-0.0248632 0.219312 0
-0.0365289 0.258344 0
-0.0357787 0.267236 0
-0.0255025 0.256283 0
-0.00859061 0.23578 0
0.0123647 0.210008 0
0.0347711 0.183251 0
0.0570943 0.156384 0
0.0778002 0.130284 0
0.0961467 0.105123 0
0.111392 0.0810725 0
0.12318 0.0578425 0
0.131157 0.0351442 0
0.135149 0.0125954 0
0.134985 -0.0101864 0
0.130584 -0.0336411 0
0.121868 -0.0582088 0
0.10894 -0.084352 0
0.0919017 -0.112533 0
0.071314 -0.142804 0
0.0477371 -0.175218 0
0.0227704 -0.209014 0
-0.00198661 -0.243428 0
-0.0231506 -0.273275 0
-0.037338 -0.293366 0
-0.0404726 -0.290426 0
-0.0284778 -0.251178 0
-0.0115787 -0.159683 0
0 0 0
0 0 0
-0.00901272 0.150844 0
-0.0197795 0.229502 0
-0.0225949 0.257158 0
-0.00775326 0.254993 0
0.0180478 0.235295 0
0.0481109 0.210349 0
0.0800381 0.18316 0
0.111432 0.156732 0
0.140915 0.131575 0
0.167109 0.108197 0
0.189579 0.0864456 0
0.207888 0.0661665 0
0.221869 0.0469821 0
0.231357 0.0285143 0
0.236253 0.0103465 0
0.236462 -0.00793822 0
0.231862 -0.0268055 0
0.222336 -0.0467211 0
0.207784 -0.0682309 0
0.188107 -0.0918812 0
0.163467 -0.11809 0
0.13403 -0.147278 0
0.100985 -0.179225 0
0.0655215 -0.213714 0
0.0305231 -0.247377 0
-0.00112701 -0.276847 0
-0.0209698 -0.286647 0
-0.0205462 -0.261303 0
-0.0101313 -0.17452 0
0 0 0
0 0 0
-0.0101926 0.168624 0
-0.00639602 0.234939 0
0.0125908 0.239954 0
0.047969 0.224679 0
0.0916098 0.198814 0
0.135385 0.172061 0
0.177553 0.146016 0
0.216374 0.122276 0
0.251053 0.100863 0
0.280797 0.0817971 0
0.305594 0.064671 0
0.325433 0.0490758 0
0.340378 0.0346179 0
0.350495 0.0209039 0
0.355781 0.00754668 0
0.356232 -0.00584083 0
0.351708 -0.019684 0
0.342067 -0.0344083 0
0.327031 -0.0505249 0
0.306321 -0.0685453 0
0.279636 -0.0891432 0
0.246672 -0.112992 0
0.207865 -0.140363 0
0.163652 -0.171526 0
0.115639 -0.205124 0
0.0654276 -0.239798 0
0.0228993 -0.263292 0
-0.00206699 -0.26335 0
-0.00964285 -0.191683 0
0 0 0
0 0 0
0.0118949 0.164939 0
0.0465723 0.213331 0
0.0963307 0.198946 0
0.153468 0.175558 0
0.211856 0.14883 0
0.265363 0.124426 0
0.313387 0.102689 0
0.355324 0.0839611 0
0.391219 0.0679189 0
0.421121 0.054238 0
0.445433 0.0423884 0
0.464559 0.0318403 0
0.478767 0.0222597 0
0.488324 0.0133126 0
0.493311 0.0046925 0
0.493808 -0.0039073 0
0.489674 -0.0128203 0
0.480763 -0.02238 0
0.466684 -0.0329764 0
0.447043 -0.0449996 0
0.421153 -0.0591991 0
0.388327 -0.0763244 0
0.348097 -0.0969067 0
0.3 -0.121477 0
0.243977 -0.1503 0
0.179969 -0.183637 0
0.115131 -0.214355 0
0.0566194 -0.235316 0
0.0147899 -0.184529 0
0 0 0
2.77334e-30 0 0
0.082395 0.113953 0
0.170411 0.142385 0
0.255927 0.126348 0
0.330825 0.106895 0
0.395458 0.0873295 0
0.450179 0.0709523 0
0.496018 0.0572892 0
0.534007 0.0458658 0
0.565121 0.0364161 0
0.590337 0.0286743 0
0.610335 0.0221869 0
0.6258 0.0165002 0
0.637098 0.0114171 0
0.644596 0.00674022 0
0.648422 0.00228064 0
0.648703 -0.00215068 0
0.645314 -0.00675805 0
0.63813 -0.0117458 0
0.626748 -0.0173278 0
0.610769 -0.0237181 0
0.589353 -0.0314947 0
0.56166 -0.0412358 0
0.52637 -0.0533333 0
0.48216 -0.0681791 0
0.427321 -0.0866902 0
0.360141 -0.109784 0
0.279723 -0.13383 0
0.185172 -0.155199 0
0.0880703 -0.126415 0
2.77334e-30 0 0
0.25 0 0
0.359149 0.0481468 0
0.457444 0.0589812 0
0.540708 0.0505636 0
0.604762 0.0409547 0
0.654234 0.0318683 0
0.693751 0.0250181 0
0.725028 0.0197492 0
0.74978 0.0154066 0
0.769226 0.0119209 0
0.784583 0.00922282 0
0.796468 0.00705969 0
0.805499 0.00517897 0
0.811974 0.00352039 0
0.816194 0.00202366 0
0.818267 0.000615122 0
0.818305 -0.000778924 0
0.816225 -0.00223779 0
0.811948 -0.00384078 0
0.805197 -0.00564657 0
0.795691 -0.00771383 0
0.782785 -0.0103287 0
0.765832 -0.0137773 0
0.743424 -0.018184 0
0.714153 -0.023673 0
0.675913 -0.0310167 0
0.626599 -0.0409874 0
0.560178 -0.0522127 0
0.470622 -0.0633201 0
0.364905 -0.0530143 0
0.25 0 0
1 0 0
1 0 0
1 0 0
1 0 0
1 0 0
1 0 0
1 0 0
1 0 0
1 0 0
1 0 0
1 0 0
1 0 0
1 0 0
1 0 0
1 0 0
1 0 0
1 0 0
1 0 0
1 0 0
1 0 0
1 0 0
1 0 0
1 0 0
1 0 0
1 0 0
1 0 0
1 0 0
1 0 0
1 0 0
1 0 0
1 0 0
      </DataArray> 
      <DataArray type="Float64" NumberOfComponents="3" Name="Real Velocity" format="ascii">
0 0 0
0 0 0
0 0 0
0 0 0
0 0 0
0 0 0
0 0 0
0 0 0
0 0 0
0 0 0
0 0 0
0 0 0