<?xml version="1.0"?>
<VTKFile type="UnstructuredGrid">
  <UnstructuredGrid>
  <Piece NumberOfPoints="961"  NumberOfCells="225">
    <Points>
      <DataArray type="Float64" NumberOfComponents="3" format="ascii">
0 0 0
0.0333333 0 0
0.0666667 0 0
0.1 0 0
0.133333 0 0
0.166667 0 0
0.2 0 0
0.233333 0 0
0.266667 0 0
0.3 0 0
0.333333 0 0
0.366667 0 0
0.4 0 0
0.433333 0 0
0.466667 0 0
0.5 0 0
0.533333 0 0
0.566667 0 0
0.6 0 0
0.633333 0 0
0.666667 0 0
0.7 0 0
0.733333 0 0
0.766667 0 0
0.8 0 0
0.833333 0 0
0.866667 0 0
0.9 0 0
0.933333 0 0
0.966667 0 0
1 0 0
0 0.0333333 0
0.0333333 0.0333333 0
0.0666667 0.0333333 0
0.1 0.0333333 0
0.133333 0.0333333 0
0.166667 0.0333333 0
0.2 0.0333333 0
0.233333 0.0333333 0
0.266667 0.0333333 0
0.3 0.0333333 0
0.333333 0.0333333 0
0.366667 0.0333333 0
0.4 0.0333333 0
0.433333 0.0333333 0
0.466667 0.0333333 0
0.5 0.0333333 0
0.533333 0.0333333 0
0.566667 0.0333333 0
0.6 0.0333333 0
0.633333 0.0333333 0
0.666667 0.0333333 0
0.7 0.0333333 0
0.733333 0.0333333 0
0.766667 0.0333333 0
0.8 0.0333333 0
0.833333 0.0333333 0
0.866667 0.0333333 0
0.9 0.0333333 0
0.933333 0.0333333 0
0.966667 0.0333333 0
1 0.0333333 0
0 0.0666667 0
0.0333333 0.0666667 0
0.0666667 0.0666667 0
0.1 0.0666667 0
0.133333 0.0666667 0
0.166667 0.0666667 0
0.2 0.0666667 0
0.233333 0.0666667 0
0.266667 0.0666667 0
0.3 0.0666667 0
0.333333 0.0666667 0
0.366667 0.0666667 0
0.4 0.0666667 0
0.433333 0.0666667 0
0.466667 0.0666667 0
0.5 0.0666667 0
0.533333 0.0666667 0
0.566667 0.0666667 0
0.6 0.0666667 0
0.633333 0.0666667 0
0.666667 0.0666667 0
0.7 0.0666667 0
0.733333 0.0666667 0
0.766667 0.0666667 0
0.8 0.0666667 0
0.833333 0.0666667 0
0.866667 0.0666667 0
0.9 0.0666667 0
0.933333 0.0666667 0
0.966667 0.0666667 0
1 0.0666667 0
0 0.1 0
0.0333333 0.1 0
0.0666667 0.1 0
0.1 0.1 0
0.133333 0.1 0
0.166667 0.1 0
0.2 0.1 0
0.233333 0.1 0
0.266667 0.1 0
0.3 0.1 0
0.333333 0.1 0
0.366667 0.1 0
0.4 0.1 0
0.433333 0.1 0
0.466667 0.1 0
0.5 0.1 0
0.533333 0.1 0
0.566667 0.1 0
0.6 0.1 0
0.633333 0.1 0
0.666667 0.1 0
0.7 0.1 0
0.733333 0.1 0
0.766667 0.1 0
0.8 0.1 0
0.833333 0.1 0
0.866667 0.1 0
0.9 0.1 0
0.933333 0.1 0
0.966667 0.1 0
1 0.1 0
0 0.133333 0
0.0333333 0.133333 0
0.0666667 0.133333 0
0.1 0.133333 0
0.133333 0.133333 0
0.166667 0.133333 0
0.2 0.133333 0
0.233333 0.133333 0
0.266667 0.133333 0
0.3 0.133333 0
0.333333 0.133333 0
0.366667 0.133333 0
0.4 0.133333 0
0.433333 0.133333 0
0.466667 0.133333 0
0.5 0.133333 0
0.533333 0.133333 0
0.566667 0.133333 0
0.6 0.133333 0
0.633333 0.133333 0
0.666667 0.133333 0
0.7 0.133333 0
0.733333 0.133333 0
0.766667 0.133333 0
0.8 0.133333 0
0.833333 0.133333 0
0.866667 0.133333 0
0.9 0.133333 0
0.933333 0.133333 0
0.966667 0.133333 0
1 0.133333 0
0 0.166667 0
0.0333333 0.166667 0
0.0666667 0.166667 0
0.1 0.166667 0
0.133333 0.166667 0
0.166667 0.166667 0
0.2 0.166667 0
0.233333 0.166667 0
0.266667 0.166667 0
0.3 0.166667 0
0.333333 0.166667 0
0.366667 0.166667 0
0.4 0.166667 0
0.433333 0.166667 0
0.466667 0.166667 0
0.5 0.166667 0
0.533333 0.166667 0
0.566667 0.166667 0
0.6 0.166667 0
0.633333 0.166667 0
0.666667 0.166667 0
0.7 0.166667 0
0.733333 0.166667 0
0.766667 0.166667 0
0.8 0.166667 0
0.833333 0.166667 0
0.866667 0.166667 0
0.9 0.166667 0
0.933333 0.166667 0
0.966667 0.166667 0
1 0.166667 0
0 0.2 0
0.0333333 0.2 0
0.0666667 0.2 0
0.1 0.2 0
0.133333 0.2 0
0.166667 0.2 0
0.2 0.2 0
0.233333 0.2 0
0.266667 0.2 0
0.3 0.2 0
0.333333 0.2 0
0.366667 0.2 0
0.4 0.2 0
0.433333 0.2 0
0.466667 0.2 0
0.5 0.2 0
0.533333 0.2 0
0.566667 0.2 0
0.6 0.2 0
0.633333 0.2 0
0.666667 0.2 0
0.7 0.2 0
0.733333 0.2 0
0.766667 0.2 0
0.8 0.2 0
0.833333 0.2 0
0.866667 0.2 0
0.9 0.2 0
0.933333 0.2 0
0.966667 0.2 0
1 0.2 0
0 0.233333 0
0.0333333 0.233333 0
0.0666667 0.233333 0
0.1 0.233333 0
0.133333 0.233333 0
0.166667 0.233333 0
0.2 0.233333 0
0.233333 0.233333 0
0.266667 0.233333 0
0.3 0.233333 0
0.333333 0.233333 0
0.366667 0.233333 0
0.4 0.233333 0
0.433333 0.233333 0
0.466667 0.233333 0
0.5 0.233333 0
0.533333 0.233333 0
0.566667 0.233333 0
0.6 0.233333 0
0.633333 0.233333 0
0.666667 0.233333 0
0.7 0.233333 0
0.733333 0.233333 0
0.766667 0.233333 0
0.8 0.233333 0
0.833333 0.233333 0
0.866667 0.233333 0
0.9 0.233333 0
0.933333 0.233333 0
0.966667 0.233333 0
1 0.233333 0
0 0.266667 0
0.0333333 0.266667 0
0.0666667 0.266667 0
0.1 0.266667 0
0.133333 0.266667 0
0.166667 0.266667 0
0.2 0.266667 0
0.233333 0.266667 0
0.266667 0.266667 0
0.3 0.266667 0
0.333333 0.266667 0
0.366667 0.266667 0
0.4 0.266667 0
0.433333 0.266667 0
0.466667 0.266667 0
0.5 0.266667 0
0.533333 0.266667 0
0.566667 0.266667 0
0.6 0.266667 0
0.633333 0.266667 0
0.666667 0.266667 0
0.7 0.266667 0
0.733333 0.266667 0
0.766667 0.266667 0
0.8 0.266667 0
0.833333 0.266667 0
0.866667 0.266667 0
0.9 0.266667 0
0.933333 0.266667 0
0.966667 0.266667 0
1 0.266667 0
0 0.3 0
0.0333333 0.3 0
0.0666667 0.3 0
0.1 0.3 0
0.133333 0.3 0
0.166667 0.3 0
0.2 0.3 0
0.233333 0.3 0
0.266667 0.3 0
0.3 0.3 0
0.333333 0.3 0
0.366667 0.3 0
0.4 0.3 0
0.433333 0.3 0
0.466667 0.3 0
0.5 0.3 0
0.533333 0.3 0
0.566667 0.3 0
0.6 0.3 0
0.633333 0.3 0
0.666667 0.3 0
0.7 0.3 0
0.733333 0.3 0
0.766667 0.3 0
0.8 0.3 0
0.833333 0.3 0
0.866667 0.3 0
0.9 0.3 0
0.933333 0.3 0
0.966667 0.3 0
1 0.3 0
0 0.333333 0
0.0333333 0.333333 0
0.0666667 0.333333 0
0.1 0.333333 0
0.133333 0.333333 0
0.166667 0.333333 0
0.2 0.333333 0
0.233333 0.333333 0
0.266667 0.333333 0
0.3 0.333333 0
0.333333 0.333333 0
0.366667 0.333333 0
0.4 0.333333 0
0.433333 0.333333 0
0.466667 0.333333 0
0.5 0.333333 0
0.533333 0.333333 0
0.566667 0.333333 0
0.6 0.333333 0
0.633333 0.333333 0
0.666667 0.333333 0
0.7 0.333333 0
0.733333 0.333333 0
0.766667 0.333333 0
0.8 0.333333 0
0.833333 0.333333 0
0.866667 0.333333 0
0.9 0.333333 0
0.933333 0.333333 0
0.966667 0.333333 0
1 0.333333 0
0 0.366667 0
0.0333333 0.366667 0
0.0666667 0.366667 0
0.1 0.366667 0
0.133333 0.366667 0
0.166667 0.366667 0
0.2 0.366667 0
0.233333 0.366667 0
0.266667 0.366667 0
0.3 0.366667 0
0.333333 0.366667 0
0.366667 0.366667 0
0.4 0.366667 0
0.433333 0.366667 0
0.466667 0.366667 0
0.5 0.366667 0
0.533333 0.366667 0
0.566667 0.366667 0
0.6 0.366667 0
0.633333 0.366667 0
0.666667 0.366667 0
0.7 0.366667 0
0.733333 0.366667 0
0.766667 0.366667 0
0.8 0.366667 0
0.833333 0.366667 0
0.866667 0.366667 0
0.9 0.366667 0
0.933333 0.366667 0
0.966667 0.366667 0
1 0.366667 0
0 0.4 0
0.0333333 0.4 0
0.0666667 0.4 0
0.1 0.4 0
0.133333 0.4 0
0.166667 0.4 0
0.2 0.4 0
0.233333 0.4 0
0.266667 0.4 0
0.3 0.4 0
0.333333 0.4 0
0.366667 0.4 0
0.4 0.4 0
0.433333 0.4 0
0.466667 0.4 0
0.5 0.4 0
0.533333 0.4 0
0.566667 0.4 0
0.6 0.4 0
0.633333 0.4 0
0.666667 0.4 0
0.7 0.4 0
0.733333 0.4 0
0.766667 0.4 0
0.8 0.4 0
0.833333 0.4 0
0.866667 0.4 0
0.9 0.4 0
0.933333 0.4 0
0.966667 0.4 0
1 0.4 0
0 0.433333 0
0.0333333 0.433333 0
0.0666667 0.433333 0
0.1 0.433333 0
0.133333 0.433333 0
0.166667 0.433333 0
0.2 0.433333 0
0.233333 0.433333 0
0.266667 0.433333 0
0.3 0.433333 0
0.333333 0.433333 0
0.366667 0.433333 0
0.4 0.433333 0
0.433333 0.433333 0
0.466667 0.433333 0
0.5 0.433333 0
0.533333 0.433333 0
0.566667 0.433333 0
0.6 0.433333 0
0.633333 0.433333 0
0.666667 0.433333 0
0.7 0.433333 0
0.733333 0.433333 0
0.766667 0.433333 0
0.8 0.433333 0
0.833333 0.433333 0
0.866667 0.433333 0
0.9 0.433333 0
0.933333 0.433333 0
0.966667 0.433333 0
1 0.433333 0
0 0.466667 0
0.0333333 0.466667 0
0.0666667 0.466667 0
0.1 0.466667 0
0.133333 0.466667 0
0.166667 0.466667 0
0.2 0.466667 0
0.233333 0.466667 0
0.266667 0.466667 0
0.3 0.466667 0
0.333333 0.466667 0
0.366667 0.466667 0
0.4 0.466667 0
0.433333 0.466667 0
0.466667 0.466667 0
0.5 0.466667 0
0.533333 0.466667 0
0.566667 0.466667 0
0.6 0.466667 0
0.633333 0.466667 0
0.666667 0.466667 0
0.7 0.466667 0
0.733333 0.466667 0
0.766667 0.466667 0
0.8 0.466667 0
0.833333 0.466667 0
0.866667 0.466667 0
0.9 0.466667 0
0.933333 0.466667 0
0.966667 0.466667 0
1 0.466667 0
0 0.5 0
0.0333333 0.5 0
0.0666667 0.5 0
0.1 0.5 0
0.133333 0.5 0
0.166667 0.5 0
0.2 0.5 0
0.233333 0.5 0
0.266667 0.5 0
0.3 0.5 0
0.333333 0.5 0
0.366667 0.5 0
0.4 0.5 0
0.433333 0.5 0
0.466667 0.5 0
0.5 0.5 0
0.533333 0.5 0
0.566667 0.5 0
0.6 0.5 0
0.633333 0.5 0
0.666667 0.5 0
0.7 0.5 0
0.733333 0.5 0
0.766667 0.5 0
0.8 0.5 0
0.833333 0.5 0
0.866667 0.5 0
0.9 0.5 0
0.933333 0.5 0
0.966667 0.5 0
1 0.5 0
0 0.533333 0
0.0333333 0.533333 0
0.0666667 0.533333 0
0.1 0.533333 0
0.133333 0.533333 0
0.166667 0.533333 0
0.2 0.533333 0
0.233333 0.533333 0
0.266667 0.533333 0
0.3 0.533333 0
0.333333 0.533333 0
0.366667 0.533333 0
0.4 0.533333 0
0.433333 0.533333 0
0.466667 0.533333 0
0.5 0.533333 0
0.533333 0.533333 0
0.566667 0.533333 0
0.6 0.533333 0
0.633333 0.533333 0
0.666667 0.533333 0
0.7 0.533333 0
0.733333 0.533333 0
0.766667 0.533333 0
0.8 0.533333 0
0.833333 0.533333 0
0.866667 0.533333 0
0.9 0.533333 0
0.933333 0.533333 0
0.966667 0.533333 0
1 0.533333 0
0 0.566667 0
0.0333333 0.566667 0
0.0666667 0.566667 0
0.1 0.566667 0
0.133333 0.566667 0
0.166667 0.566667 0
0.2 0.566667 0
0.233333 0.566667 0
0.266667 0.566667 0
0.3 0.566667 0
0.333333 0.566667 0
0.366667 0.566667 0
0.4 0.566667 0
0.433333 0.566667 0
0.466667 0.566667 0
0.5 0.566667 0
0.533333 0.566667 0
0.566667 0.566667 0
0.6 0.566667 0
0.633333 0.566667 0
0.666667 0.566667 0
0.7 0.566667 0
0.733333 0.566667 0
0.766667 0.566667 0
0.8 0.566667 0
0.833333 0.566667 0
0.866667 0.566667 0
0.9 0.566667 0
0.933333 0.566667 0
0.966667 0.566667 0
1 0.566667 0
0 0.6 0
0.0333333 0.6 0
0.0666667 0.6 0
0.1 0.6 0
0.133333 0.6 0
0.166667 0.6 0
0.2 0.6 0
0.233333 0.6 0
0.266667 0.6 0
0.3 0.6 0
0.333333 0.6 0
0.366667 0.6 0
0.4 0.6 0
0.433333 0.6 0
0.466667 0.6 0
0.5 0.6 0
0.533333 0.6 0
0.566667 0.6 0
0.6 0.6 0
0.633333 0.6 0
0.666667 0.6 0
0.7 0.6 0
0.733333 0.6 0
0.766667 0.6 0
0.8 0.6 0
0.833333 0.6 0
0.866667 0.6 0
0.9 0.6 0
0.933333 0.6 0
0.966667 0.6 0
1 0.6 0
0 0.633333 0
0.0333333 0.633333 0
0.0666667 0.633333 0
0.1 0.633333 0
0.133333 0.633333 0
0.166667 0.633333 0
0.2 0.633333 0
0.233333 0.633333 0
0.266667 0.633333 0
[...]
    <PointData>
      <DataArray type="Float64" NumberOfComponents="3" Name="Velocity" format="ascii">
0 0 0
0 0 0
0 0 0
0 0 0
0 0 0
0 0 0
0 0 0
0 0 0
0 0 0
0 0 0
0 0 0
0 0 0
0 0 0
0 0 0
0 0 0
0 0 0
0 0 0
0 0 0
0 0 0
0 0 0
0 0 0
0 0 0
0 0 0
0 0 0
0 0 0
0 0 0
0 0 0
0 0 0
0 0 0
0 0 0
0 0 0
0 0 0
-0.000491658 0.000445028 0
-0.00149454 0.000997133 0
-0.00315508 0.00153872 0
-0.00561974 0.00195221 0
-0.00854509 0.00219686 0
-0.0115877 0.00223194 0
-0.0146231 0.00213434 0
-0.0175266 0.00198093 0
-0.0201905 0.00177154 0
-0.0225065 0.00150599 0
-0.0244365 0.00120564 0
-0.0259422 0.000891807 0
-0.0269975 0.000565226 0
-0.0275762 0.000226616 0
-0.0276711 -0.000117351 0
-0.0272748 -0.000460002 0
-0.0264032 -0.000789967 0
-0.0250723 -0.00109588 0
-0.0233237 -0.0013781 0
-0.0211989 -0.00163699 0
-0.0187505 -0.00184646 0
-0.0160311 -0.00198043 0
-0.0131621 -0.00205234 0
-0.0102649 -0.00207561 0
-0.00743508 -0.00198398 0
-0.0047682 -0.00171116 0
-0.00256832 -0.00130004 0
-0.0011395 -0.000793475 0
-0.000332985 -0.000317965 0
0 0 0
0 0 0
-0.000748286 0.00115243 0
-0.00315633 0.00284463 0
-0.00691205 0.0045231 0
-0.0117033 0.00563438 0
-0.0171098 0.0062427 0
-0.022711 0.00641232 0
-0.0282531 0.00624064 0
-0.0334822 0.00582505 0
-0.0382531 0.00521802 0
-0.0424207 0.00447205 0
-0.0459082 0.00362311 0
-0.0486383 0.00270722 0
-0.0505571 0.00173683 0
-0.0516104 0.000724386 0
-0.0517837 -0.000305802 0
-0.0510625 -0.00132943 0
-0.0494722 -0.00231851 0
-0.0470384 -0.00324503 0
-0.043842 -0.00408878 0
-0.0399638 -0.00482954 0
-0.0355168 -0.00543474 0
-0.0306141 -0.00587182 0
-0.0254181 -0.00610062 0
-0.0200913 -0.006081 0
-0.0148854 -0.00575777 0
-0.0100519 -0.00507576 0
-0.00588701 -0.00397902 0
-0.00268662 -0.00241163 0
-0.000655895 -0.000907361 0
0 0 0
0 0 0
-0.00133382 0.00304076 0
-0.00523346 0.00654764 0
-0.0109582 0.00971448 0
-0.0177675 0.0117351 0
-0.025235 0.0127871 0
-0.0329347 0.013048 0
-0.0405202 0.01267 0
-0.0476449 0.011805 0
-0.0541447 0.0105679 0
-0.0598555 0.00907333 0
-0.0646558 0.00737246 0
-0.0684237 0.00551639 0
-0.0710809 0.00354021 0
-0.072549 0.001479 0
-0.0728051 -0.000618525 0
-0.0718265 -0.00270364 0
-0.0696491 -0.0047207 0
-0.0663087 -0.00661406 0
-0.0619173 -0.0083298 0
-0.0565867 -0.009814 0
-0.050491 -0.0110242 0
-0.0438042 -0.0119179 0
-0.036709 -0.0124031 0
-0.029388 -0.0123878 0
-0.0221937 -0.0117967 0
-0.0154786 -0.010554 0
-0.00951668 -0.00853321 0
-0.00458202 -0.00560786 0
-0.001226 -0.00251707 0
0 0 0
0 0 0
-0.00281218 0.00702854 0
-0.00797399 0.0131113 0
-0.0149811 0.0178742 0
-0.023329 0.020943 0
-0.0324619 0.0224796 0
-0.0418237 0.0226459 0
-0.0510542 0.0217734 0
-0.0597931 0.0201935 0
-0.0678223 0.0180495 0
-0.0749237 0.015485 0
-0.0809199 0.0125737 0
-0.0856337 0.00938946 0
-0.0889712 0.00600077 0
-0.0908383 0.00247613 0
-0.0912023 -0.00110869 0
-0.0900301 -0.00467796 0
-0.0873759 -0.0081316 0
-0.0832936 -0.0113695 0
-0.077912 -0.0142989 0
-0.0713599 -0.0168267 0
-0.0638654 -0.0188741 0
-0.0556566 -0.0203622 0
-0.0469753 -0.0212178 0
-0.0380635 -0.0213678 0
-0.029203 -0.0205759 0
-0.0206756 -0.018606 0
-0.0130179 -0.0154589 0
-0.00676639 -0.0111356 0
-0.00230056 -0.00589599 0
0 0 0
0 0 0
-0.00394927 0.0115191 0
-0.0104285 0.0204233 0
-0.0188795 0.0268561 0
-0.0287439 0.0309608 0
-0.0393858 0.0329573 0
-0.0501695 0.0330655 0
-0.0607742 0.0317537 0
-0.0708792 0.0294903 0
-0.0802087 0.0264302 0
-0.0884865 0.0227285 0
-0.0955032 0.0184985 0
-0.101049 0.0138534 0
-0.105007 0.00889362 0
-0.107259 0.00371927 0
-0.107755 -0.00155385 0
-0.106442 -0.00680996 0
-0.103386 -0.0118958 0
-0.0986512 -0.0166579 0
-0.0923916 -0.0209596 0
-0.0847612 -0.0246641 0
-0.0760288 -0.0276416 0
-0.0664635 -0.0297626 0
-0.0563829 -0.0309905 0
-0.046105 -0.0312891 0
-0.0358353 -0.0303086 0
-0.0257797 -0.0276995 0
-0.0165905 -0.0234434 0
-0.0089201 -0.0175222 0
-0.00323455 -0.00976473 0
0 0 0
0 0 0
-0.00351097 0.0149159 0
-0.0116477 0.0263712 0
-0.0225526 0.0345138 0
-0.0343681 0.0394913 0
-0.0466024 0.0418576 0
-0.0587638 0.0421665 0
-0.0705994 0.0408139 0
-0.0818558 0.0381954 0
-0.0922267 0.0344772 0
-0.101406 0.0298252 0
-0.109208 0.0244184 0
-0.11545 0.0184353 0
-0.119967 0.0119939 0
-0.122592 0.00521187 0
-0.123242 -0.00173156 0
-0.121831 -0.00865722 0
-0.118413 -0.0153577 0
-0.11304 -0.0216256 0
-0.105922 -0.0272756 0
-0.0972686 -0.0321226 0
-0.0873705 -0.0359839 0
-0.0765174 -0.0386766 0
-0.0650976 -0.0401667 0
-0.0534996 -0.0404199 0
-0.042013 -0.0392079 0
-0.0309277 -0.0363022 0
-0.0204342 -0.0311742 0
-0.0107235 -0.023295 0
-0.00338293 -0.0128439 0
0 0 0
0 0 0
-0.00316808 0.0209632 0
-0.0124193 0.0359967 0
-0.0250176 0.0459845 0
-0.0382267 0.0518105 0
-0.0517704 0.0544014 0
-0.0653721 0.0546836 0
-0.0786674 0.0529847 0
-0.0912921 0.0496321 0
-0.102929 0.0448575 0
-0.113261 0.0388926 0
-0.122094 0.0319473 0
-0.129234 0.0242317 0
-0.13447 0.0158838 0
-0.137591 0.0070413 0
-0.138486 -0.00205297 0
-0.137043 -0.0111562 0
-0.133301 -0.0199777 0
-0.127303 -0.0282269 0
-0.119292 -0.0356544 0
-0.109512 -0.0420109 0
-0.0982896 -0.0470658 0
-0.0859518 -0.0505886 0
-0.072949 -0.0524875 0
-0.0597318 -0.0526709 0
-0.0468193 -0.0510956 0
-0.034731 -0.0477184 0
-0.0232024 -0.0416981 0
-0.0119693 -0.0321932 0
-0.00343428 -0.0185214 0
0 0 0
0 0 0
-0.00459142 0.0334058 0
-0.013531 0.0543415 0
-0.0252913 0.0664052 0
-0.0383449 0.0731945 0
-0.0525487 0.0758099 0
-0.0677595 0.0753515 0
-0.0831162 0.072297 0
-0.0977573 0.0671236 0
-0.111368 0.0602383 0
-0.123633 0.0520478 0
-0.13422 0.0426991 0
-0.142796 0.0323394 0
-0.149134 0.0211456 0
-0.15301 0.00929492 0
-0.15431 -0.00292925 0
-0.152922 -0.0152434 0
-0.148897 -0.0272162 0
-0.142286 -0.0384163 0
-0.133293 -0.0485035 0
-0.122121 -0.0571375 0
-0.109185 -0.0640525 0
-0.0949003 -0.0689827 0
-0.0797667 -0.071694 0
-0.0642859 -0.0719526 0
-0.0493375 -0.0697937 0
-0.0358012 -0.0652523 0
-0.0235482 -0.0580619 0
-0.0124501 -0.0479558 0
-0.0040772 -0.0301849 0
0 0 0
0 0 0
-0.00531984 0.0429294 0
-0.0132267 0.0687429 0
-0.023645 0.0830138 0
-0.0364992 0.0913151 0
-0.0513717 0.0946388 0
-0.0678451 0.0939766 0
-0.0847683 0.0900376 0
-0.100991 0.083531 0
-0.116176 0.0749767 0
-0.129987 0.0648948 0
-0.14198 0.0533947 0
-0.151708 0.0405859 0
-0.158947 0.0267097 0
-0.163474 0.0120076 0
-0.165179 -0.00319141 0
-0.163957 -0.0185584 0
-0.159855 -0.0335476 0
-0.152918 -0.0476136 0
-0.143302 -0.0603092 0
-0.131162 -0.0711874 0
-0.116963 -0.0799243 0
-0.101174 -0.0861964 0
-0.084342 -0.0896344 0
-0.0670177 -0.0898692 0
-0.0503052 -0.086898 0
-0.0353084 -0.0807181 0
-0.0224018 -0.0718219 0
-0.0119597 -0.060702 0
-0.00436492 -0.0394106 0
0 0 0
0 0 0
-0.00289219 0.0402202 0
-0.00975008 0.0665381 0
-0.0203494 0.083048 0
-0.034466 0.0938442 0
-0.0506739 0.0994442 0
-0.0675474 0.100365 0
-0.0844464 0.0974936 0
-0.100731 0.0917151 0
-0.115984 0.0834297 0
-0.12979 0.0730373 0
-0.141769 0.0607548 0
-0.151544 0.0467989 0
-0.158896 0.0315065 0
-0.163607 0.0152143 0
-0.16556 -0.00167047 0
-0.164637 -0.0187405 0
-0.160829 -0.0354464 0
-0.154129 -0.0512385 0
-0.144698 -0.0655579 0
-0.1327 -0.0778456 0
-0.118529 -0.0876619 0
-0.102583 -0.0945671 0
-0.085466 -0.0981564 0
-0.067783 -0.0980245 0
-0.05046 -0.0940047 0
-0.0344228 -0.0859301 0
-0.0206931 -0.0745343 0
-0.010292 -0.060551 0
-0.00335068 -0.0377747 0
0 0 0
0 0 0
-0.00108524 0.0338306 0
-0.00762179 0.0593483 0
-0.0188365 0.0780818 0
-0.0339562 0.0915595 0
-0.0508682 0.0998291 0
-0.06746 0.102938 0
-0.0836362 0.101812 0
-0.099302 0.0973769 0
-0.113959 0.0898988 0
-0.127109 0.0796439 0
-0.138486 0.0669944 0
-0.147821 0.0523324 0
-0.154912 0.0360847 0
-0.159553 0.0186777 0
-0.161625 0.000597139 0
-0.161004 -0.0176716 0
-0.157645 -0.0356116 0
-0.1515 -0.0527065 0
-0.142725 -0.0683187 0
-0.131476 -0.081811 0
-0.118039 -0.0925945 0
-0.102697 -0.10008 0
-0.0860718 -0.103833 0
-0.068784 -0.103418 0
-0.0515014 -0.0984816 0
-0.0348917 -0.0886712 0
-0.0204434 -0.0746012 0
-0.00964438 -0.0568856 0
-0.00274615 -0.0328951 0
0 0 0
0 0 0
-0.00367573 0.0323133 0
-0.0113624 0.0587951 0
-0.022538 0.079689 0
-0.0366806 0.0952387 0
-0.0523676 0.105397 0
-0.0681761 0.110115 0
-0.0838235 0.11014 0
-0.0990273 0.106217 0
-0.113265 0.0986851 0
-0.126015 0.0878828 0
-0.137029 0.0743284 0
-0.146059 0.0585404 0
-0.152927 0.0409931 0
-0.157453 0.0221608 0
-0.159544 0.00257501 0
-0.159105 -0.017233 0
-0.156129 -0.0367425 0
-0.150614 -0.0554327 0
-0.142626 -0.0726604 0
-0.132234 -0.0877823 0
-0.11965 -0.100052 0
-0.105085 -0.108722 0
-0.0890925 -0.113239 0
-0.072223 -0.113049 0
-0.0551289 -0.107697 0
-0.0384624 -0.0967242 0
-0.023674 -0.0804243 0
-0.0122143 -0.0590887 0
-0.00426305 -0.0323898 0
0 0 0
0 0 0
-0.00683006 0.0350553 0
-0.0159905 0.064408 0
-0.0272678 0.0878831 0
-0.0404484 0.105305 0
-0.0550114 0.116777 0
-0.070436 0.122399 0
-0.0860479 0.122773 0
-0.101173 0.1185 0
-0.1153 0.110094 0
-0.127918 0.0980712 0
-0.138787 0.0830492 0
-0.14767 0.0656474 0
-0.15442 0.0463665 0
-0.158894 0.0257073 0
-0.161029 0.00421173 0
-0.160764 -0.0175781 0
-0.158139 -0.0391162 0
-0.153191 -0.0598567 0
-0.145887 -0.0791548 0
-0.13619 -0.0963657 0
-0.124241 -0.11061 0
-0.11018 -0.121008 0
-0.0944728 -0.126832 0
-0.0775834 -0.127354 0
-0.060257 -0.121989 0
-0.0432387 -0.110152 0
-0.0278304 -0.091791 0
-0.0153339 -0.0668558 0
-0.00598017 -0.0360306 0
0 0 0
0 0 0
-0.00671464 0.0414438 0
-0.0165247 0.0757169 0
-0.0288396 0.102678 0
-0.0430684 0.122184 0
-0.0586393 0.1346 0
-0.0749802 0.140291 0
-0.0913493 0.140004 0
-0.107005 0.134488 0
-0.12146 0.124432 0
-0.134228 0.110526 0
-0.145149 0.0934489 0
-0.154066 0.0738779 0
-0.160872 0.0523397 0
-0.165461 0.0293607 0
-0.16779 0.00545591 0
-0.167811 -0.0188598 0
-0.16553 -0.0430099 0
-0.160952 -0.0664178 0
-0.153991 -0.0883736 0
-0.144561 -0.108167 0
-0.132692 -0.124845 0
-0.118415 -0.137455 0
-0.102158 -0.145071 0
-0.0843485 -0.146767 0
-0.0658 -0.141698 0
-0.0473247 -0.129016 0
-0.0303579 -0.108488 0
-0.0163354 -0.0798824 0
-0.00597632 -0.0435893 0
0 0 0
0 0 0
-0.00551635 0.0491015 0
-0.0156904 0.089057 0
-0.029333 0.119851 0
-0.0452551 0.14147 0
-0.0624743 0.15461 0
-0.0800083 0.159968 0
-0.0971719 0.158562 0
-0.11328 0.151411 0
-0.127919 0.139389 0
-0.140673 0.12337 0
-0.151481 0.104071 0
-0.160282 0.0822119 0
-0.167028 0.0583389 0
-0.171673 0.0329973 0
-0.174186 0.00665923 0
-0.174533 -0.0202031 0
-0.172659 -0.0470051 0
-0.168509 -0.0731626 0
-0.161953 -0.097898 0
-0.152858 -0.120434 0
-0.141142 -0.139765 0
-0.126721 -0.154885 0
-0.109958 -0.164633 0
-0.0912177 -0.16785 0
-0.0713579 -0.163361 0
-0.0512367 -0.149991 0
-0.0325089 -0.127294 0
-0.0168293 -0.0948232 0
-0.00554416 -0.0524382 0
0 0 0
0 0 0
-0.00542206 0.0556515 0
-0.0162128 0.100764 0
-0.0308278 0.135184 0
-0.0477227 0.158761 0
-0.0657394 0.172549 0
-0.0837199 0.177605 0
-0.10096 0.175173 0
-0.116756 0.166499 0
-0.130849 0.152657 0
-0.142981 0.134722 0
-0.153149 0.113458 0
-0.161353 0.0896296 0
-0.167636 0.0637904 0
-0.172046 0.036493 0
-0.174576 0.00817338 0
-0.175219 -0.0207325 0
-0.173883 -0.0496833 0
-0.170479 -0.0781374 0
-0.164788 -0.105309 0
-0.156594 -0.130413 0
-0.145731 -0.152375 0
-0.13203 -0.170119 0
-0.115685 -0.182198 0
-0.0968903 -0.187163 0
-0.0765305 -0.183515 0
-0.0554914 -0.169752 0
-0.0355357 -0.144987 0
-0.0184261 -0.108333 0
-0.0059763 -0.0599497 0
0 0 0
0 0 0
-0.0058585 0.0624312 0
-0.0173969 0.112615 0
-0.0328088 0.15041 0
-0.0502877 0.175674 0
-0.0685502 0.189824 0
-0.0863128 0.194277 0
-0.102909 0.190572 0
-0.117674 0.180246 0
-0.13052 0.164555 0
-0.141361 0.14475 0
-0.150284 0.121656 0
-0.157378 0.0960966 0
-0.16279 0.0686062 0
-0.166667 0.0397192 0
-0.169039 0.00982445 0
-0.169939 -0.0206895 0
-0.169252 -0.0513601 0
-0.166866 -0.081725 0
-0.162474 -0.111046 0
-0.155769 -0.138586 0
-0.146469 -0.163191 0
-0.134294 -0.183707 0
-0.119227 -0.198415 0
-0.10125 -0.205598 0
-0.0811642 -0.203319 0
-0.0597704 -0.189642 0
-0.0389368 -0.163137 0
-0.0205319 -0.122372 0
-0.00680365 -0.0678305 0
0 0 0
0 0 0
-0.00625238 0.0707782 0
-0.0185477 0.126389 0
-0.0347609 0.167263 0
-0.0527668 0.193829 0
-0.0710223 0.207843 0
-0.0879843 0.211062 0
-0.103215 0.205495 0
-0.116275 0.193152 0
-0.127199 0.175404 0
-0.136021 0.153622 0
-0.143015 0.128712 0
-0.148458 0.101578 0
-0.152582 0.0726985 0
-0.155618 0.0425474 0
-0.15765 0.0114385 0
-0.158761 -0.020315 0
-0.158815 -0.0523512 0
-0.15768 -0.084308 0
-0.15499 -0.115548 0
-0.15038 -0.145433 0
-0.143367 -0.172728 0
-0.133465 -0.196195 0
-0.120471 -0.213934 0
-0.104181 -0.224044 0
-0.0851054 -0.223932 0
-0.0637549 -0.211008 0
-0.0422104 -0.183315 0
-0.0225525 -0.138901 0
-0.00755708 -0.0777876 0
0 0 0
0 0 0
-0.00667687 0.0800935 0
-0.0198632 0.141354 0
-0.0368531 0.184974 0
-0.0549404 0.212145 0
-0.0724884 0.225219 0
-0.08786 0.226552 0
-0.100857 0.218626 0
-0.111281 0.203923 0
-0.119365 0.183962 0
-0.125342 0.16026 0
-0.12969 0.133757 0
-0.132888 0.105391 0
-0.135255 0.0755598 0
-0.13711 0.0446582 0
-0.13859 0.0128956 0
-0.139831 -0.0195187 0
-0.140693 -0.0523485 0
-0.141036 -0.0853576 0
-0.140453 -0.118042 0
-0.138535 -0.149896 0
-0.134591 -0.179684 0
-0.12793 -0.206168 0
-0.118066 -0.227261 0
-0.10451 -0.240873 0
-0.0874375 -0.243738 0
-0.0670205 -0.232587 0
-0.0453724 -0.204636 0
-0.0246065 -0.1571 0
-0.00829249 -0.0891612 0
0 0 0
0 0 0
-0.00720514 0.0897781 0
-0.0215414 0.156778 0
-0.0392543 0.202773 0
-0.0565892 0.229539 0
-0.0722811 0.240566 0
-0.085065 0.239344 0
-0.0948169 0.228652 0
-0.101413 0.211269 0
-0.105494 0.188984 0
-0.107705 0.163585 0
-0.108657 0.135923 0
-0.108962 0.106851 0
-0.109051 0.0766829 0
-0.10935 0.0457322 0
-0.110039 0.0140759 0
-0.111296 -0.0182097 0
-0.113006 -0.0510437 0
-0.115054 -0.0843453 0
-0.116983 -0.117756 0
-0.118337 -0.150916 0
-0.118305 -0.182758 0
-0.116076 -0.212209 0
-0.110659 -0.2369 0
-0.101066 -0.254458 0
-0.0872444 -0.261118 0
-0.0691424 -0.253119 0
-0.0484388 -0.226212 0
-0.0268126 -0.176149 0
-0.00906577 -0.101291 0
0 0 0
0 0 0
-0.00809018 0.100482 0
-0.0232505 0.172769 0
-0.0409543 0.21996 0
-0.0566746 0.245158 0
-0.0694188 0.253049 0
-0.0781937 0.248318 0
-0.0832039 0.234215 0
-0.0846539 0.213991 0
-0.0836111 0.189564 0
-0.0811429 0.162854 0
-0.0779713 0.134581 0
-0.074818 0.105462 0
-0.0721974 0.0756989 0
-0.0706239 0.0454945 0
-0.0703063 0.0147828 0
-0.0714538 -0.0165016 0
-0.0739943 -0.0484429 0
-0.0778555 -0.0811255 0
-0.0825673 -0.114371 0
-0.0876598 -0.148002 0
-0.0922603 -0.181192 0
-0.0954961 -0.213119 0
-0.0958903 -0.241331 0
-0.091966 -0.263379 0
-0.0831359 -0.274854 0
-0.0688128 -0.271346 0
-0.0502732 -0.246979 0
-0.0287935 -0.195875 0
-0.0101202 -0.114671 0
0 0 0
0 0 0
-0.00958497 0.112856 0
-0.0246586 0.189436 0
-0.0409425 0.235834 0
-0.0541585 0.258146 0
-0.0629199 0.261834 0
-0.0658402 0.252358 0
-0.0641272 0.233963 0
-0.0589888 0.210891 0
-0.0517386 0.184795 0
-0.0436903 0.157325 0
-0.0356918 0.129097 0
-0.0285912 0.100725 0
-0.0229213 0.072239 0
-0.0192153 0.0436698 0
-0.0176996 0.0148199 0
-0.0186006 -0.0145077 0
-0.0218959 -0.0445523 0
-0.0275629 -0.075553 0
-0.0351921 -0.107569 0
-0.0443741 -0.140659 0
-0.0542063 -0.174232 0
-0.0637866 -0.207695 0
-0.0713993 -0.239031 0
-0.0753289 -0.266221 0
-0.0737218 -0.283726 0
-0.0647242 -0.286008 0
-0.0497397 -0.265867 0
-0.0301719 -0.216104 0
-0.0116992 -0.129791 0
0 0 0
0 0 0
-0.0105239 0.125581 0
-0.0253637 0.205353 0
-0.0394565 0.248983 0
-0.0477394 0.266136 0
-0.0495303 0.263768 0
-0.0441469 0.248833 0
-0.0338118 0.226214 0
-0.0207476 0.200793 0
-0.00639958 0.173792 0
0.00778683 0.146436 0
0.0209245 0.119183 0
0.0321264 0.0924911 0
0.0409123 0.0662081 0
0.046802 0.0401821 0
0.0495777 0.0141049 0
0.0490214 -0.012332 0
0.0451034 -0.0394942 0
0.0377938 -0.0677474 0
0.0273759 -0.0973858 0
0.0141327 -0.128703 0
-0.00111358 -0.161383 0
-0.0175405 -0.195107 0
-0.0334064 -0.228516 0
-0.0469694 -0.260249 0
-0.0551792 -0.284171 0
-0.0549856 -0.294144 0
-0.0466203 -0.280865 0
-0.0303147 -0.23503 0
-0.0125981 -0.145216 0
0 0 0
0 0 0
-0.00974135 0.137339 0
-0.0249639 0.219095 0
-0.0367335 0.257995 0
-0.0361162 0.26676 0
-0.0259959 0.255697 0
-0.00925633 0.235111 0
0.0115171 0.209289 0
0.0337392 0.182517 0
0.0558832 0.155672 0
0.0764223 0.129627 0
0.0946207 0.104552 0
0.109743 0.0806113 0
0.121438 0.057511 0
0.129355 0.0349553 0
0.133323 0.0125552 0
0.13317 -0.0100782 0
0.128818 -0.0333908 0
0.120185 -0.0578288 0
0.10737 -0.0838588 0
0.090473 -0.111948 0
0.0700474 -0.142151 0
0.0466482 -0.174523 0
0.0218676 -0.208304 0
-0.00270193 -0.242733 0
-0.023685 -0.272625 0
-0.0377061 -0.292792 0
-0.0406968 -0.289958 0
-0.0285886 -0.250845 0
-0.0116126 -0.159508 0
0 0 0
0 0 0
-0.00903635 0.150792 0
-0.0198596 0.229365 0
-0.0227621 0.256919 0
-0.00803607 0.254654 0
0.0176259 0.234867 0
0.0475311 0.209853 0
0.0792889 0.182621 0
0.110508 0.156179 0
0.13982 0.131035 0
0.165853 0.107697 0
0.188179 0.0860095 0
0.206367 0.0658141 0
0.220255 0.0467281 0
0.229682 0.0283688 0
0.234552 0.0103139 0
0.234769 -0.00785846 0
0.230213 -0.0266185 0
0.220763 -0.0464365 0
0.206316 -0.0678618 0
0.18677 -0.0914437 0
0.162282 -0.117603 0
0.13301 -0.14676 0
0.100139 -0.178698 0
0.0648507 -0.213199 0
0.0300214 -0.246898 0
-0.00147301 -0.276425 0
-0.0211809 -0.286305 0
-0.0206505 -0.261063 0
-0.0101632 -0.174396 0
0 0 0
0 0 0
-0.0102079 0.168603 0
-0.00645148 0.234863 0
0.0124691 0.239806 0
0.0477537 0.224457 0
0.0912773 0.198525 0
0.134915 0.171721 0
0.176933 0.145642 0
0.215597 0.12189 0
0.25012 0.100484 0
0.279716 0.081446 0
0.30438 0.0643645 0
0.324106 0.0488282 0
0.338964 0.0344397 0
0.349024 0.020802 0
0.354283 0.00752403 0
0.354741 -0.0057849 0
0.350254 -0.0195534 0
0.34068 -0.0342102 0
0.325737 -0.0502687 0
0.305145 -0.0682427 0
0.278594 -0.088807 0
0.245777 -0.112637 0
0.207124 -0.140002 0
0.163066 -0.171176 0
0.115201 -0.204798 0
0.0651264 -0.239513 0
0.0227159 -0.263064 0
-0.00215746 -0.263193 0
-0.00967053 -0.191604 0
0 0 0
0 0 0
0.011888 0.164937 0
0.046542 0.213298 0
0.0962562 0.198867 0
0.153325 0.17543 0
0.211621 0.148657 0
0.265017 0.124218 0
0.312916 0.102458 0
0.354721 0.0837212 0
0.390484 0.0676833 0
0.420259 0.0540195 0
0.444457 0.042198 0
0.463487 0.0316869 0
0.47762 0.0221499 0
0.487127 0.0132505 0
0.492091 0.00467978 0
0.492593 -0.00387132 0
0.488489 -0.0127383 0
0.479635 -0.0222568 0
0.465634 -0.0328181 0
0.44609 -0.0448136 0
0.420312 -0.0589935 0
0.387606 -0.0761079 0
0.347504 -0.0966884 0
0.299533 -0.121266 0
0.243631 -0.150105 0
0.179733 -0.183469 0
0.114989 -0.214222 0
0.0565499 -0.235229 0
0.014769 -0.184488 0
0 0 0
2.77334e-30 0 0
0.0823954 0.113958 0
0.170402 0.142375 0
0.255895 0.126314 0
0.330749 0.106835 0
0.395318 0.0872453 0
0.449958 0.0708492 0
0.495705 0.0571736 0
0.533596 0.0457451 0
0.56461 0.0362974 0
0.58973 0.0285644 0
0.609642 0.0220913 0
0.625034 0.0164236 0
0.636276 0.0113626 0
0.643738 0.00670997 0
0.647547 0.00227534 0
0.647833 -0.00213154 0
0.644469 -0.006716 0
0.637327 -0.0116834 0
0.626004 -0.0172482 0
0.610097 -0.0236252 0
0.588763 -0.0313926 0
0.56116 -0.0411289 0
0.525961 -0.0532262 0
0.481842 -0.0680764 0
0.427089 -0.0865964 0
0.359986 -0.109703 0
0.279634 -0.133768 0
0.185131 -0.155161 0
0.0880589 -0.126399 0
2.77334e-30 0 0
0.25 0 0
0.359153 0.0481503 0
0.457449 0.0589806 0
0.540704 0.0505548 0
0.604737 0.0409372 0
0.654176 0.0318427 0
0.693649 0.0249861 0
0.724875 0.019713 0
0.749572 0.0153688 0
0.768961 0.0118838 0
0.784264 0.00918859 0
0.796101 0.00703013 0
0.805092 0.0051555 0
0.811536 0.00350401 0
0.815736 0.00201495 0
0.817801 0.000614234 0
0.817842 -0.000772219 0
0.815777 -0.00222403 0
0.811525 -0.00382083 0
0.804807 -0.00562147 0
0.795342 -0.00768485 0
0.782481 -0.0102971 0
0.765577 -0.0137445 0
0.743219 -0.0181514 0
0.713997 -0.0236421 0
0.675803 -0.0309889 0
0.626528 -0.0409641 0
0.560141 -0.0521954 0
0.470607 -0.0633108 0
0.364902 -0.0530118 0
0.25 0 0
1 0 0
1 0 0
1 0 0
1 0 0
1 0 0
1 0 0
1 0 0
1 0 0
1 0 0
1 0 0
1 0 0
1 0 0
1 0 0
1 0 0
1 0 0
1 0 0
1 0 0
1 0 0
1 0 0
1 0 0
1 0 0
1 0 0
1 0 0
1 0 0
1 0 0
1 0 0
1 0 0
1 0 0
1 0 0
1 0 0
1 0 0
      </DataArray> 
      <DataArray type="Float64" NumberOfComponents="3" Name="Real Velocity" format="ascii">
0 0 0
0 0 0
0 0 0
0 0 0
0 0 0
0 0 0
0 0 0
0 0 0
0 0 0
0 0 0
0 0 0
0 0 0