<?xml version="1.0"?>
<VTKFile type="UnstructuredGrid">
  <UnstructuredGrid>
  <Piece NumberOfPoints="961"  NumberOfCells="225">
    <Points>
      <DataArray type="Float64" NumberOfComponents="3" format="ascii">
0 0 0
0.0333333 0 0
0.0666667 0 0
0.1 0 0
0.133333 0 0
0.166667 0 0
0.2 0 0
0.233333 0 0
0.266667 0 0
0.3 0 0
0.333333 0 0
0.366667 0 0
0.4 0 0
0.433333 0 0
0.466667 0 0
0.5 0 0
0.533333 0 0
0.566667 0 0
0.6 0 0
0.633333 0 0
0.666667 0 0
0.7 0 0
0.733333 0 0
0.766667 0 0
0.8 0 0
0.833333 0 0
0.866667 0 0
0.9 0 0
0.933333 0 0
0.966667 0 0
1 0 0
0 0.0333333 0
0.0333333 0.0333333 0
0.0666667 0.0333333 0
0.1 0.0333333 0
0.133333 0.0333333 0
0.166667 0.0333333 0
0.2 0.0333333 0
0.233333 0.0333333 0
0.266667 0.0333333 0
0.3 0.0333333 0
0.333333 0.0333333 0
0.366667 0.0333333 0
0.4 0.0333333 0
0.433333 0.0333333 0
0.466667 0.0333333 0
0.5 0.0333333 0
0.533333 0.0333333 0
0.566667 0.0333333 0
0.6 0.0333333 0
0.633333 0.0333333 0
0.666667 0.0333333 0
0.7 0.0333333 0
0.733333 0.0333333 0
0.766667 0.0333333 0
0.8 0.0333333 0
0.833333 0.0333333 0
0.866667 0.0333333 0
0.9 0.0333333 0
0.933333 0.0333333 0
0.966667 0.0333333 0
1 0.0333333 0
0 0.0666667 0
0.0333333 0.0666667 0
0.0666667 0.0666667 0
0.1 0.0666667 0
0.133333 0.0666667 0
0.166667 0.0666667 0
0.2 0.0666667 0
0.233333 0.0666667 0
0.266667 0.0666667 0
0.3 0.0666667 0
0.333333 0.0666667 0
0.366667 0.0666667 0
0.4 0.0666667 0
0.433333 0.0666667 0
0.466667 0.0666667 0
0.5 0.0666667 0
0.533333 0.0666667 0
0.566667 0.0666667 0
0.6 0.0666667 0
0.633333 0.0666667 0
0.666667 0.0666667 0
0.7 0.0666667 0
0.733333 0.0666667 0
0.766667 0.0666667 0
0.8 0.0666667 0
0.833333 0.0666667 0
0.866667 0.0666667 0
0.9 0.0666667 0
0.933333 0.0666667 0
0.966667 0.0666667 0
1 0.0666667 0
0 0.1 0
0.0333333 0.1 0
0.0666667 0.1 0
0.1 0.1 0
0.133333 0.1 0
0.166667 0.1 0
0.2 0.1 0
0.233333 0.1 0
0.266667 0.1 0
0.3 0.1 0
0.333333 0.1 0
0.366667 0.1 0
0.4 0.1 0
0.433333 0.1 0
0.466667 0.1 0
0.5 0.1 0
0.533333 0.1 0
0.566667 0.1 0
0.6 0.1 0
0.633333 0.1 0
0.666667 0.1 0
0.7 0.1 0
0.733333 0.1 0
0.766667 0.1 0
0.8 0.1 0
0.833333 0.1 0
0.866667 0.1 0
0.9 0.1 0
0.933333 0.1 0
0.966667 0.1 0
1 0.1 0
0 0.133333 0
0.0333333 0.133333 0
0.0666667 0.133333 0
0.1 0.133333 0
0.133333 0.133333 0
0.166667 0.133333 0
0.2 0.133333 0
0.233333 0.133333 0
0.266667 0.133333 0
0.3 0.133333 0
0.333333 0.133333 0
0.366667 0.133333 0
0.4 0.133333 0
0.433333 0.133333 0
0.466667 0.133333 0
0.5 0.133333 0
0.533333 0.133333 0
0.566667 0.133333 0
0.6 0.133333 0
0.633333 0.133333 0
0.666667 0.133333 0
0.7 0.133333 0
0.733333 0.133333 0
0.766667 0.133333 0
0.8 0.133333 0
0.833333 0.133333 0
0.866667 0.133333 0
0.9 0.133333 0
0.933333 0.133333 0
0.966667 0.133333 0
1 0.133333 0
0 0.166667 0
0.0333333 0.166667 0
0.0666667 0.166667 0
0.1 0.166667 0
0.133333 0.166667 0
0.166667 0.166667 0
0.2 0.166667 0
0.233333 0.166667 0
0.266667 0.166667 0
0.3 0.166667 0
0.333333 0.166667 0
0.366667 0.166667 0
0.4 0.166667 0
0.433333 0.166667 0
0.466667 0.166667 0
0.5 0.166667 0
0.533333 0.166667 0
0.566667 0.166667 0
0.6 0.166667 0
0.633333 0.166667 0
0.666667 0.166667 0
0.7 0.166667 0
0.733333 0.166667 0
0.766667 0.166667 0
0.8 0.166667 0
0.833333 0.166667 0
0.866667 0.166667 0
0.9 0.166667 0
0.933333 0.166667 0
0.966667 0.166667 0
1 0.166667 0
0 0.2 0
0.0333333 0.2 0
0.0666667 0.2 0
0.1 0.2 0
0.133333 0.2 0
0.166667 0.2 0
0.2 0.2 0
0.233333 0.2 0
0.266667 0.2 0
0.3 0.2 0
0.333333 0.2 0
0.366667 0.2 0
0.4 0.2 0
0.433333 0.2 0
0.466667 0.2 0
0.5 0.2 0
0.533333 0.2 0
0.566667 0.2 0
0.6 0.2 0
0.633333 0.2 0
0.666667 0.2 0
0.7 0.2 0
0.733333 0.2 0
0.766667 0.2 0
0.8 0.2 0
0.833333 0.2 0
0.866667 0.2 0
0.9 0.2 0
0.933333 0.2 0
0.966667 0.2 0
1 0.2 0
0 0.233333 0
0.0333333 0.233333 0
0.0666667 0.233333 0
0.1 0.233333 0
0.133333 0.233333 0
0.166667 0.233333 0
0.2 0.233333 0
0.233333 0.233333 0
0.266667 0.233333 0
0.3 0.233333 0
0.333333 0.233333 0
0.366667 0.233333 0
0.4 0.233333 0
0.433333 0.233333 0
0.466667 0.233333 0
0.5 0.233333 0
0.533333 0.233333 0
0.566667 0.233333 0
0.6 0.233333 0
0.633333 0.233333 0
0.666667 0.233333 0
0.7 0.233333 0
0.733333 0.233333 0
0.766667 0.233333 0
0.8 0.233333 0
0.833333 0.233333 0
0.866667 0.233333 0
0.9 0.233333 0
0.933333 0.233333 0
0.966667 0.233333 0
1 0.233333 0
0 0.266667 0
0.0333333 0.266667 0
0.0666667 0.266667 0
0.1 0.266667 0
0.133333 0.266667 0
0.166667 0.266667 0
0.2 0.266667 0
0.233333 0.266667 0
0.266667 0.266667 0
0.3 0.266667 0
0.333333 0.266667 0
0.366667 0.266667 0
0.4 0.266667 0
0.433333 0.266667 0
0.466667 0.266667 0
0.5 0.266667 0
0.533333 0.266667 0
0.566667 0.266667 0
0.6 0.266667 0
0.633333 0.266667 0
0.666667 0.266667 0
0.7 0.266667 0
0.733333 0.266667 0
0.766667 0.266667 0
0.8 0.266667 0
0.833333 0.266667 0
0.866667 0.266667 0
0.9 0.266667 0
0.933333 0.266667 0
0.966667 0.266667 0
1 0.266667 0
0 0.3 0
0.0333333 0.3 0
0.0666667 0.3 0
0.1 0.3 0
0.133333 0.3 0
0.166667 0.3 0
0.2 0.3 0
0.233333 0.3 0
0.266667 0.3 0
0.3 0.3 0
0.333333 0.3 0
0.366667 0.3 0
0.4 0.3 0
0.433333 0.3 0
0.466667 0.3 0
0.5 0.3 0
0.533333 0.3 0
0.566667 0.3 0
0.6 0.3 0
0.633333 0.3 0
0.666667 0.3 0
0.7 0.3 0
0.733333 0.3 0
0.766667 0.3 0
0.8 0.3 0
0.833333 0.3 0
0.866667 0.3 0
0.9 0.3 0
0.933333 0.3 0
0.966667 0.3 0
1 0.3 0
0 0.333333 0
0.0333333 0.333333 0
0.0666667 0.333333 0
0.1 0.333333 0
0.133333 0.333333 0
0.166667 0.333333 0
0.2 0.333333 0
0.233333 0.333333 0
0.266667 0.333333 0
0.3 0.333333 0
0.333333 0.333333 0
0.366667 0.333333 0
0.4 0.333333 0
0.433333 0.333333 0
0.466667 0.333333 0
0.5 0.333333 0
0.533333 0.333333 0
0.566667 0.333333 0
0.6 0.333333 0
0.633333 0.333333 0
0.666667 0.333333 0
0.7 0.333333 0
0.733333 0.333333 0
0.766667 0.333333 0
0.8 0.333333 0
0.833333 0.333333 0
0.866667 0.333333 0
0.9 0.333333 0
0.933333 0.333333 0
0.966667 0.333333 0
1 0.333333 0
0 0.366667 0
0.0333333 0.366667 0
0.0666667 0.366667 0
0.1 0.366667 0
0.133333 0.366667 0
0.166667 0.366667 0
0.2 0.366667 0
0.233333 0.366667 0
0.266667 0.366667 0
0.3 0.366667 0
0.333333 0.366667 0
0.366667 0.366667 0
0.4 0.366667 0
0.433333 0.366667 0
0.466667 0.366667 0
0.5 0.366667 0
0.533333 0.366667 0
0.566667 0.366667 0
0.6 0.366667 0
0.633333 0.366667 0
0.666667 0.366667 0
0.7 0.366667 0
0.733333 0.366667 0
0.766667 0.366667 0
0.8 0.366667 0
0.833333 0.366667 0
0.866667 0.366667 0
0.9 0.366667 0
0.933333 0.366667 0
0.966667 0.366667 0
1 0.366667 0
0 0.4 0
0.0333333 0.4 0
0.0666667 0.4 0
0.1 0.4 0
0.133333 0.4 0
0.166667 0.4 0
0.2 0.4 0
0.233333 0.4 0
0.266667 0.4 0
0.3 0.4 0
0.333333 0.4 0
0.366667 0.4 0
0.4 0.4 0
0.433333 0.4 0
0.466667 0.4 0
0.5 0.4 0
0.533333 0.4 0
0.566667 0.4 0
0.6 0.4 0
0.633333 0.4 0
0.666667 0.4 0
0.7 0.4 0
0.733333 0.4 0
0.766667 0.4 0
0.8 0.4 0
0.833333 0.4 0
0.866667 0.4 0
0.9 0.4 0
0.933333 0.4 0
0.966667 0.4 0
1 0.4 0
0 0.433333 0
0.0333333 0.433333 0
0.0666667 0.433333 0
0.1 0.433333 0
0.133333 0.433333 0
0.166667 0.433333 0
0.2 0.433333 0
0.233333 0.433333 0
0.266667 0.433333 0
0.3 0.433333 0
0.333333 0.433333 0
0.366667 0.433333 0
0.4 0.433333 0
0.433333 0.433333 0
0.466667 0.433333 0
0.5 0.433333 0
0.533333 0.433333 0
0.566667 0.433333 0
0.6 0.433333 0
0.633333 0.433333 0
0.666667 0.433333 0
0.7 0.433333 0
0.733333 0.433333 0
0.766667 0.433333 0
0.8 0.433333 0
0.833333 0.433333 0
0.866667 0.433333 0
0.9 0.433333 0
0.933333 0.433333 0
0.966667 0.433333 0
1 0.433333 0
0 0.466667 0
0.0333333 0.466667 0
0.0666667 0.466667 0
0.1 0.466667 0
0.133333 0.466667 0
0.166667 0.466667 0
0.2 0.466667 0
0.233333 0.466667 0
0.266667 0.466667 0
0.3 0.466667 0
0.333333 0.466667 0
0.366667 0.466667 0
0.4 0.466667 0
0.433333 0.466667 0
0.466667 0.466667 0
0.5 0.466667 0
0.533333 0.466667 0
0.566667 0.466667 0
0.6 0.466667 0
0.633333 0.466667 0
0.666667 0.466667 0
0.7 0.466667 0
0.733333 0.466667 0
0.766667 0.466667 0
0.8 0.466667 0
0.833333 0.466667 0
0.866667 0.466667 0
0.9 0.466667 0
0.933333 0.466667 0
0.966667 0.466667 0
1 0.466667 0
0 0.5 0
0.0333333 0.5 0
0.0666667 0.5 0
0.1 0.5 0
0.133333 0.5 0
0.166667 0.5 0
0.2 0.5 0
0.233333 0.5 0
0.266667 0.5 0
0.3 0.5 0
0.333333 0.5 0
0.366667 0.5 0
0.4 0.5 0
0.433333 0.5 0
0.466667 0.5 0
0.5 0.5 0
0.533333 0.5 0
0.566667 0.5 0
0.6 0.5 0
0.633333 0.5 0
0.666667 0.5 0
0.7 0.5 0
0.733333 0.5 0
0.766667 0.5 0
0.8 0.5 0
0.833333 0.5 0
0.866667 0.5 0
0.9 0.5 0
0.933333 0.5 0
0.966667 0.5 0
1 0.5 0
0 0.533333 0
0.0333333 0.533333 0
0.0666667 0.533333 0
0.1 0.533333 0
0.133333 0.533333 0
0.166667 0.533333 0
0.2 0.533333 0
0.233333 0.533333 0
0.266667 0.533333 0
0.3 0.533333 0
0.333333 0.533333 0
0.366667 0.533333 0
0.4 0.533333 0
0.433333 0.533333 0
0.466667 0.533333 0
0.5 0.533333 0
0.533333 0.533333 0
0.566667 0.533333 0
0.6 0.533333 0
0.633333 0.533333 0
0.666667 0.533333 0
0.7 0.533333 0
0.733333 0.533333 0
0.766667 0.533333 0
0.8 0.533333 0
0.833333 0.533333 0
0.866667 0.533333 0
0.9 0.533333 0
0.933333 0.533333 0
0.966667 0.533333 0
1 0.533333 0
0 0.566667 0
0.0333333 0.566667 0
0.0666667 0.566667 0
0.1 0.566667 0
0.133333 0.566667 0
0.166667 0.566667 0
0.2 0.566667 0
0.233333 0.566667 0
0.266667 0.566667 0
0.3 0.566667 0
0.333333 0.566667 0
0.366667 0.566667 0
0.4 0.566667 0
0.433333 0.566667 0
0.466667 0.566667 0
0.5 0.566667 0
0.533333 0.566667 0
0.566667 0.566667 0
0.6 0.566667 0
0.633333 0.566667 0
0.666667 0.566667 0
0.7 0.566667 0
0.733333 0.566667 0
0.766667 0.566667 0
0.8 0.566667 0
0.833333 0.566667 0
0.866667 0.566667 0
0.9 0.566667 0
0.933333 0.566667 0
0.966667 0.566667 0
1 0.566667 0
0 0.6 0
0.0333333 0.6 0
0.0666667 0.6 0
0.1 0.6 0
0.133333 0.6 0
0.166667 0.6 0
0.2 0.6 0
0.233333 0.6 0
0.266667 0.6 0
0.3 0.6 0
0.333333 0.6 0
0.366667 0.6 0
0.4 0.6 0
0.433333 0.6 0
0.466667 0.6 0
0.5 0.6 0
0.533333 0.6 0
0.566667 0.6 0
0.6 0.6 0
0.633333 0.6 0
0.666667 0.6 0
0.7 0.6 0
0.733333 0.6 0
0.766667 0.6 0
0.8 0.6 0
0.833333 0.6 0
0.866667 0.6 0
0.9 0.6 0
0.933333 0.6 0
0.966667 0.6 0
1 0.6 0
0 0.633333 0
0.0333333 0.633333 0
0.0666667 0.633333 0
0.1 0.633333 0
0.133333 0.633333 0
0.166667 0.633333 0
0.2 0.633333 0
0.233333 0.633333 0
0.266667 0.633333 0
[...]
    <PointData>
      <DataArray type="Float64" NumberOfComponents="3" Name="Velocity" format="ascii">
0 0 0
0 0 0
0 0 0
0 0 0
0 0 0
0 0 0
0 0 0
0 0 0
0 0 0
0 0 0
0 0 0
0 0 0
0 0 0
0 0 0
0 0 0
0 0 0
0 0 0
0 0 0
0 0 0
0 0 0
0 0 0
0 0 0
0 0 0
0 0 0
0 0 0
0 0 0
0 0 0
0 0 0
0 0 0
0 0 0
0 0 0
0 0 0
-0.000497022 0.000449867 0
-0.0015178 0.00101252 0
-0.00321019 0.00156597 0
-0.00572207 0.00198822 0
-0.00870479 0.00223844 0
-0.0118097 0.0022758 0
-0.0149092 0.00217792 0
-0.0178755 0.00202243 0
-0.0205982 0.00180939 0
-0.0229665 0.00153889 0
-0.0249408 0.00123253 0
-0.0264815 0.000911948 0
-0.0275613 0.000577926 0
-0.0281529 0.000231253 0
-0.0282487 -0.000121044 0
-0.027841 -0.000471939 0
-0.0269464 -0.000809685 0
-0.0255818 -0.00112254 0
-0.02379 -0.00141061 0
-0.0216142 -0.00167402 0
-0.019109 -0.0018865 0
-0.0163294 -0.00202179 0
-0.0133994 -0.00209327 0
-0.0104431 -0.0021143 0
-0.00755855 -0.00201853 0
-0.00484387 -0.00173961 0
-0.00260648 -0.00132035 0
-0.00115382 -0.000803555 0
-0.000335215 -0.000319882 0
0 0 0
0 0 0
-0.000762839 0.00117331 0
-0.00321363 0.00289836 0
-0.00703821 0.00461104 0
-0.0119224 0.00574723 0
-0.0174374 0.00637143 0
-0.0231545 0.00654818 0
-0.028814 0.00637627 0
-0.0341559 0.00595449 0
-0.0390319 0.00533634 0
-0.0432934 0.00457532 0
-0.0468605 0.00370804 0
-0.0496537 0.00277111 0
-0.0516167 0.0017774 0
-0.0526937 0.000739787 0
-0.0528689 -0.000316421 0
-0.0521269 -0.00136592 0
-0.0504941 -0.00237949 0
-0.047997 -0.00332792 0
-0.0447201 -0.00419013 0
-0.0407483 -0.00494503 0
-0.0361983 -0.00555972 0
-0.0311872 -0.00600128 0
-0.0258814 -0.00622937 0
-0.0204469 -0.00620365 0
-0.0151402 -0.00586842 0
-0.0102177 -0.005168 0
-0.00598012 -0.00404728 0
-0.00272811 -0.00245117 0
-0.000666463 -0.000921465 0
0 0 0
0 0 0
-0.00136196 0.00309672 0
-0.00533181 0.006671 0
-0.0111614 0.00990203 0
-0.0181027 0.011969 0
-0.02572 0.01305 0
-0.0335778 0.0133232 0
-0.0413221 0.0129433 0
-0.0485991 0.0120652 0
-0.0552405 0.0108055 0
-0.0610779 0.00928084 0
-0.0659859 0.0075432 0
-0.0698389 0.0056447 0
-0.0725557 0.00362142 0
-0.0740552 0.00150943 0
-0.0743134 -0.000640648 0
-0.0733059 -0.00277822 0
-0.0710701 -0.00484493 0
-0.0676432 -0.00678244 0
-0.0631423 -0.00853507 0
-0.0576846 -0.0100472 0
-0.0514495 -0.0112759 0
-0.0446162 -0.0121783 0
-0.0373725 -0.0126623 0
-0.0299057 -0.0126356 0
-0.0225741 -0.0120219 0
-0.0157358 -0.0107446 0
-0.00966994 -0.00867887 0
-0.00465578 -0.00569964 0
-0.00124768 -0.00255674 0
0 0 0
0 0 0
-0.00285889 0.00714648 0
-0.00811661 0.0133439 0
-0.0152572 0.0182058 0
-0.0237648 0.0213455 0
-0.0330749 0.0229252 0
-0.0426228 0.0231067 0
-0.0520412 0.0222271 0
-0.0609628 0.0206236 0
-0.0691631 0.0184417 0
-0.0764174 0.015827 0
-0.0825436 0.0128546 0
-0.0873594 0.00959992 0
-0.0907675 0.00613298 0
-0.0926705 0.00252402 0
-0.0930346 -0.00114825 0
-0.0918261 -0.00480512 0
-0.0891017 -0.00834153 0
-0.0849183 -0.0116524 0
-0.0794087 -0.014642 0
-0.0727057 -0.0172145 0
-0.0650443 -0.0192911 0
-0.0566592 -0.0207927 0
-0.0477995 -0.021646 0
-0.0387142 -0.0217777 0
-0.0296896 -0.020951 0
-0.0210124 -0.0189289 0
-0.013225 -0.0157132 0
-0.00686977 -0.0113058 0
-0.0023328 -0.00597772 0
0 0 0
0 0 0
-0.00401062 0.0117141 0
-0.0106068 0.0207851 0
-0.0192146 0.0273508 0
-0.0292597 0.0315496 0
-0.0400988 0.0336022 0
-0.0510881 0.0337295 0
-0.0619004 0.0324069 0
-0.0722081 0.0301097 0
-0.0817276 0.0269954 0
-0.0901753 0.0232214 0
-0.0973362 0.0189033 0
-0.102996 0.0141567 0
-0.107032 0.00908391 0
-0.109325 0.00378752 0
-0.109821 -0.00161222 0
-0.108467 -0.00699502 0
-0.105332 -0.0122003 0
-0.100484 -0.0170674 0
-0.0940803 -0.0214557 0
-0.0862809 -0.0252244 0
-0.0773621 -0.0282435 0
-0.0676006 -0.030383 0
-0.057322 -0.0316071 0
-0.0468521 -0.0318801 0
-0.0364008 -0.0308521 0
-0.0261781 -0.0281732 0
-0.0168416 -0.023825 0
-0.00904899 -0.0177893 0
-0.00327641 -0.00990223 0
0 0 0
0 0 0
-0.00357414 0.0151912 0
-0.0118412 0.0268624 0
-0.0229223 0.0351659 0
-0.0349383 0.0402539 0
-0.0473886 0.0426862 0
-0.0597725 0.0430224 0
-0.0718288 0.0416617 0
-0.0832959 0.0390034 0
-0.0938619 0.035217 0
-0.103215 0.0304717 0
-0.111167 0.0249502 0
-0.117528 0.0188349 0
-0.12213 0.012246 0
-0.124805 0.00530388 0
-0.125461 -0.00180557 0
-0.124009 -0.00889628 0
-0.120505 -0.0157522 0
-0.115 -0.0221572 0
-0.107718 -0.0279212 0
-0.0988797 -0.0328541 0
-0.0887824 -0.0367711 0
-0.0777246 -0.0394878 0
-0.0660993 -0.0409722 0
-0.0542994 -0.0411927 0
-0.0426218 -0.0399212 0
-0.0313635 -0.0369298 0
-0.0207164 -0.0316891 0
-0.0108724 -0.0236699 0
-0.00343309 -0.0130481 0
0 0 0
0 0 0
-0.00322377 0.0213331 0
-0.0126018 0.0366385 0
-0.0253759 0.0468191 0
-0.0387879 0.0527777 0
-0.0525526 0.0554475 0
-0.0663846 0.0557618 0
-0.0799084 0.0540515 0
-0.0927482 0.0506476 0
-0.104583 0.0457868 0
-0.115094 0.0397055 0
-0.12408 0.032618 0
-0.131345 0.0247384 0
-0.136672 0.0162067 0
-0.139848 0.00716253 0
-0.140754 -0.00214307 0
-0.139269 -0.0114593 0
-0.135436 -0.0204817 0
-0.129295 -0.028906 0
-0.121108 -0.0364763 0
-0.111133 -0.0429369 0
-0.0997044 -0.0480577 0
-0.0871568 -0.0516087 0
-0.073944 -0.0535 0
-0.0605196 -0.0536417 0
-0.0474128 -0.051992 0
-0.0351526 -0.0485092 0
-0.0234741 -0.0423526 0
-0.012112 -0.0326816 0
-0.00348208 -0.018797 0
0 0 0
0 0 0
-0.00463386 0.0338951 0
-0.0136704 0.0551757 0
-0.0255707 0.0674784 0
-0.0387961 0.0744399 0
-0.0531993 0.0771564 0
-0.0686331 0.0767245 0
-0.0842213 0.0736366 0
-0.0990872 0.0683853 0
-0.11291 0.061385 0
-0.125368 0.0530504 0
-0.136122 0.0435297 0
-0.144833 0.0329713 0
-0.151269 0.021553 0
-0.155196 0.00945286 0
-0.156499 -0.0030395 0
-0.155062 -0.0156344 0
-0.150941 -0.0278733 0
-0.144195 -0.0392979 0
-0.135035 -0.0495587 0
-0.123672 -0.0583061 0
-0.110527 -0.0652867 0
-0.0960225 -0.0702473 0
-0.0806685 -0.072949 0
-0.0649762 -0.0731531 0
-0.0498337 -0.070898 0
-0.0361295 -0.0662218 0
-0.0237396 -0.0588627 0
-0.0125399 -0.0485586 0
-0.00410264 -0.0305306 0
0 0 0
0 0 0
-0.00534003 0.0434962 0
-0.0133062 0.0697109 0
-0.0238241 0.0842658 0
-0.0368191 0.0927827 0
-0.051869 0.0962365 0
-0.0685516 0.0956021 0
-0.0856997 0.0916158 0
-0.102146 0.0850139 0
-0.117546 0.0763244 0
-0.131556 0.0660754 0
-0.143721 0.0543762 0
-0.153587 0.0413364 0
-0.160923 0.0271977 0
-0.165497 0.0122022 0
-0.167202 -0.0033156 0
-0.165928 -0.019021 0
-0.161734 -0.0343308 0
-0.154676 -0.048662 0
-0.14491 -0.0615588 0
-0.132591 -0.0725654 0
-0.118191 -0.0813751 0
-0.102183 -0.0876808 0
-0.0851303 -0.0911063 0
-0.0675985 -0.091275 0
-0.0506978 -0.0881873 0
-0.0355388 -0.0818432 0
-0.0225073 -0.0727441 0
-0.0119891 -0.0613908 0
-0.00436101 -0.039803 0
0 0 0
0 0 0
-0.00287791 0.0407554 0
-0.00976847 0.0674808 0
-0.0204531 0.0843029 0
-0.0347132 0.0953484 0
-0.0511022 0.101111 0
-0.0681735 0.102086 0
-0.0852758 0.0991878 0
-0.101758 0.0933312 0
-0.117198 0.084918 0
-0.131175 0.0743497 0
-0.143304 0.0618484 0
-0.153199 0.0476365 0
-0.160639 0.0320532 0
-0.165403 0.0154377 0
-0.167367 -0.00179215 0
-0.166408 -0.0192185 0
-0.162525 -0.036258 0
-0.155716 -0.0523271 0
-0.146148 -0.066867 0
-0.133987 -0.0793186 0
-0.119636 -0.0892393 0
-0.103498 -0.0961865 0
-0.0861864 -0.0997589 0
-0.0683158 -0.0995553 0
-0.0508179 -0.0954079 0
-0.0346249 -0.0871489 0
-0.0207715 -0.0755213 0
-0.0102925 -0.0612684 0
-0.00332347 -0.0381685 0
0 0 0
0 0 0
-0.00105765 0.0343056 0
-0.00761858 0.0602213 0
-0.0189147 0.0792847 0
-0.0341781 0.0930334 0
-0.0512643 0.101493 0
-0.0680294 0.104689 0
-0.0843734 0.10357 0
-0.100197 0.0990833 0
-0.115 0.0914919 0
-0.128284 0.0810574 0
-0.139776 0.0681744 0
-0.149207 0.053238 0
-0.156371 0.0366791 0
-0.161065 0.0189289 0
-0.163159 0.00048968 0
-0.162519 -0.0181363 0
-0.159104 -0.0364075 0
-0.152868 -0.0537823 0
-0.143977 -0.0696314 0
-0.132595 -0.083325 0
-0.119012 -0.0942495 0
-0.103518 -0.101791 0
-0.086737 -0.105528 0
-0.0692919 -0.10504 0
-0.0518568 -0.0999693 0
-0.0351053 -0.08996 0
-0.0205376 -0.0756351 0
-0.00965374 -0.0576176 0
-0.00271935 -0.0332813 0
0 0 0
0 0 0
-0.00368941 0.0327798 0
-0.011418 0.0596684 0
-0.0226659 0.0809063 0
-0.0369132 0.0967343 0
-0.0527208 0.107093 0
-0.0686496 0.111922 0
-0.0844165 0.111979 0
-0.0997385 0.108016 0
-0.114089 0.100372 0
-0.126941 0.0893827 0
-0.138044 0.0755826 0
-0.147149 0.059507 0
-0.154074 0.0416349 0
-0.158638 0.0224451 0
-0.16074 0.00248868 0
-0.160278 -0.0176834 0
-0.157259 -0.0375317 0
-0.151687 -0.0565166 0
-0.14363 -0.0740002 0
-0.133153 -0.0893445 0
-0.12047 -0.101776 0
-0.105794 -0.110521 0
-0.0896821 -0.115035 0
-0.0726909 -0.114774 0
-0.0554772 -0.109281 0
-0.0386976 -0.0980982 0
-0.023811 -0.0815264 0
-0.0122764 -0.059865 0
-0.00427797 -0.0327957 0
0 0 0
0 0 0
-0.0068848 0.0355413 0
-0.0161012 0.0653181 0
-0.0274345 0.089149 0
-0.0406702 0.106853 0
-0.0552906 0.118528 0
-0.0707781 0.124275 0
-0.0864601 0.124692 0
-0.101664 0.120382 0
-0.115872 0.11186 0
-0.128563 0.0996424 0
-0.139498 0.0843661 0
-0.148436 0.0666668 0
-0.155228 0.0470508 0
-0.159721 0.0260246 0
-0.161854 0.00414894 0
-0.161562 -0.0180155 0
-0.158902 -0.039907 0
-0.153932 -0.0609639 0
-0.146605 -0.080538 0
-0.136873 -0.0979814 0
-0.124872 -0.112396 0
-0.11074 -0.122885 0
-0.0949493 -0.12872 0
-0.0779754 -0.129174 0
-0.0605659 -0.123664 0
-0.0434686 -0.111609 0
-0.0279902 -0.0929648 0
-0.0154376 -0.0676867 0
-0.00603336 -0.0364676 0
0 0 0
0 0 0
-0.00675542 0.0419532 0
-0.0166025 0.0766666 0
-0.0289485 0.103994 0
-0.0432007 0.12379 0
-0.0587928 0.136416 0
-0.0751585 0.142233 0
-0.0915593 0.141989 0
-0.107257 0.136432 0
-0.121757 0.126255 0
-0.134567 0.112153 0
-0.145528 0.094818 0
-0.15448 0.0749402 0
-0.161313 0.0530571 0
-0.165916 0.0297058 0
-0.168242 0.00541456 0
-0.168246 -0.0192882 0
-0.165947 -0.0438099 0
-0.161365 -0.067558 0
-0.154404 -0.0898093 0
-0.144969 -0.109841 0
-0.133082 -0.12669 0
-0.118769 -0.139394 0
-0.102466 -0.147026 0
-0.0846082 -0.148658 0
-0.0660097 -0.143444 0
-0.0474852 -0.13054 0
-0.0304739 -0.10972 0
-0.0164147 -0.0807588 0
-0.00601953 -0.0440529 0
0 0 0
0 0 0
-0.00552442 0.0496227 0
-0.0157035 0.0900256 0
-0.0293472 0.121193 0
-0.0452658 0.143108 0
-0.062479 0.156462 0
-0.0800066 0.161944 0
-0.0971672 0.160577 0
-0.11328 0.153382 0
-0.127927 0.141238 0
-0.140691 0.125025 0
-0.151511 0.10547 0
-0.160326 0.0832998 0
-0.167085 0.0590767 0
-0.171739 0.0333614 0
-0.174256 0.00663479 0
-0.174601 -0.0206222 0
-0.172728 -0.0478079 0
-0.168588 -0.0743207 0
-0.162047 -0.0993634 0
-0.152968 -0.122139 0
-0.141263 -0.141638 0
-0.126842 -0.156853 0
-0.110072 -0.16662 0
-0.0913185 -0.169775 0
-0.0714423 -0.165143 0
-0.0513021 -0.151552 0
-0.0325555 -0.12856 0
-0.01686 -0.095727 0
-0.00555995 -0.0529182 0
0 0 0
0 0 0
-0.00541498 0.0561567 0
-0.0161855 0.101707 0
-0.03077 0.136496 0
-0.0476269 0.160368 0
-0.0656011 0.174371 0
-0.0835378 0.179554 0
-0.100737 0.177163 0
-0.116499 0.168449 0
-0.130564 0.15449 0
-0.142673 0.136367 0
-0.152826 0.114852 0
-0.16102 0.0907176 0
-0.167301 0.0645324 0
-0.171712 0.0368643 0
-0.174247 0.0081589 0
-0.174899 -0.0211382 0
-0.17358 -0.0504686 0
-0.170205 -0.0792738 0
-0.164552 -0.10675 0
-0.156401 -0.132092 0
-0.14558 -0.154224 0
-0.131917 -0.172067 0
-0.115604 -0.184168 0
-0.0968358 -0.189076 0
-0.0764974 -0.18529 0
-0.0554737 -0.17131 0
-0.0355286 -0.146253 0
-0.0184255 -0.109237 0
-0.00597809 -0.0604296 0
0 0 0
0 0 0
-0.00584363 0.0629046 0
-0.0173413 0.113506 0
-0.032693 0.151657 0
-0.0500985 0.177209 0
-0.0682803 0.191571 0
-0.0859607 0.196154 0
-0.102478 0.192496 0
-0.117171 0.182138 0
-0.129953 0.166338 0
-0.14074 0.146354 0
-0.149619 0.123018 0
-0.156682 0.097164 0
-0.162074 0.0693388 0
-0.165941 0.0400898 0
-0.168317 0.00981822 0
-0.169234 -0.0210748 0
-0.16858 -0.0521109 0
-0.166243 -0.0828117 0
-0.161913 -0.112425 0
-0.155278 -0.1402 0
-0.146053 -0.164976 0
-0.133952 -0.185593 0
-0.118956 -0.200328 0
-0.101046 -0.207459 0
-0.0810197 -0.205049 0
-0.0596767 -0.191164 0
-0.038884 -0.164375 0
-0.0205085 -0.123255 0
-0.00679802 -0.0682992 0
0 0 0
0 0 0
-0.00622691 0.0712158 0
-0.0184634 0.127218 0
-0.034592 0.168428 0
-0.0524955 0.19527 0
-0.0706379 0.20949 0
-0.0874836 0.212838 0
-0.102599 0.207324 0
-0.115552 0.194956 0
-0.126379 0.177111 0
-0.135116 0.155161 0
-0.14204 0.130022 0
-0.147429 0.102609 0
-0.151517 0.0734105 0
-0.154535 0.0429132 0
-0.15657 0.011444 0
-0.157703 -0.0206704 0
-0.157802 -0.0530537 0
-0.156731 -0.0853291 0
-0.154124 -0.116847 0
-0.14961 -0.146959 0
-0.1427 -0.174421 0
-0.132906 -0.197989 0
-0.12002 -0.215757 0
-0.103834 -0.225821 0
-0.084854 -0.225588 0
-0.0635877 -0.212466 0
-0.0421125 -0.184504 0
-0.0225062 -0.139751 0
-0.00754382 -0.078239 0
0 0 0
0 0 0
-0.0066419 0.0804874 0
-0.0197545 0.142106 0
-0.0366403 0.186038 0
-0.0546017 0.213467 0
-0.0720098 0.226739 0
-0.0872358 0.2282 0
-0.100087 0.22033 0
-0.110372 0.205611 0
-0.118328 0.185563 0
-0.124192 0.161708 0
-0.128445 0.134994 0
-0.131569 0.106369 0
-0.133885 0.0762394 0
-0.135714 0.0450138 0
-0.137194 0.0129143 0
-0.138461 -0.019837 0
-0.139376 -0.0529909 0
-0.139797 -0.086298 0
-0.139313 -0.119243 0
-0.137511 -0.151311 0
-0.133697 -0.181258 0
-0.127175 -0.207838 0
-0.117451 -0.228961 0
-0.104032 -0.242534 0
-0.0870879 -0.245288 0
-0.0667849 -0.233955 0
-0.0452323 -0.205753 0
-0.0245388 -0.157901 0
-0.0082722 -0.0895871 0
0 0 0
0 0 0
-0.00716564 0.0901166 0
-0.0214175 0.157432 0
-0.0390109 0.203711 0
-0.056201 0.230716 0
-0.0717317 0.241928 0
-0.0843464 0.240831 0
-0.0939279 0.230198 0
-0.100359 0.212808 0
-0.104287 0.19045 0
-0.10636 0.164916 0
-0.107195 0.137066 0
-0.107409 0.107758 0
-0.107432 0.0773176 0
-0.107696 0.0460712 0
-0.10838 0.014107 0
-0.109665 -0.0184864 0
-0.111433 -0.0516164 0
-0.113567 -0.0851903 0
-0.115609 -0.11884 0
-0.117099 -0.152196 0
-0.117218 -0.184183 0
-0.115152 -0.213726 0
-0.109902 -0.238446 0
-0.100474 -0.25597 0
-0.0868089 -0.262532 0
-0.0688469 -0.254369 0
-0.0482616 -0.227234 0
-0.0267265 -0.176882 0
-0.00903984 -0.101681 0
0 0 0
0 0 0
-0.0080493 0.100759 0
-0.0231194 0.173316 0
-0.0406942 0.220758 0
-0.056258 0.246172 0
-0.0688265 0.254235 0
-0.0774156 0.249624 0
-0.0822372 0.235583 0
-0.0835032 0.215358 0
-0.0822871 0.190872 0
-0.0796624 0.164047 0
-0.076356 0.135608 0
-0.0730947 0.106281 0
-0.0703963 0.0762772 0
-0.0687781 0.0458097 0
-0.0684505 0.0148237 0
-0.0696235 -0.016735 0
-0.0722239 -0.0489401 0
-0.0761784 -0.0818654 0
-0.0810131 -0.115324 0
-0.0862539 -0.149129 0
-0.0910223 -0.18245 0
-0.0944396 -0.214457 0
-0.0950215 -0.242698 0
-0.0912837 -0.264718 0
-0.0826311 -0.276108 0
-0.0684687 -0.272455 0
-0.0500659 -0.247886 0
-0.0286923 -0.196526 0
-0.0100898 -0.115017 0
0 0 0
0 0 0
-0.00954404 0.113071 0
-0.0245272 0.189873 0
-0.040681 0.236486 0
-0.0537369 0.25899 0
-0.0623171 0.262835 0
-0.0650435 0.25347 0
-0.0631316 0.235137 0
-0.057797 0.212072 0
-0.0503601 0.18593 0
-0.0421416 0.158364 0
-0.0339949 0.129995 0
-0.026774 0.101444 0
-0.0210155 0.0727506 0
-0.0172565 0.0439537 0
-0.0157247 0.0148662 0
-0.016648 -0.014699 0
-0.0200027 -0.0449718 0
-0.0257651 -0.0761821 0
-0.0335217 -0.108382 0
-0.0428589 -0.141623 0
-0.0528681 -0.175308 0
-0.0626408 -0.208842 0
-0.0704538 -0.240202 0
-0.0745836 -0.267369 0
-0.0731682 -0.284801 0
-0.0643453 -0.28696 0
-0.0495105 -0.266646 0
-0.0300595 -0.216662 0
-0.0116651 -0.130087 0
0 0 0
0 0 0
-0.0104852 0.125737 0
-0.0252397 0.205684 0
-0.0392083 0.249492 0
-0.047336 0.26681 0
-0.0489485 0.26458 0
-0.0433715 0.249747 0
-0.0328353 0.227187 0
-0.0195701 0.201778 0
-0.00502887 0.174744 0
0.00933558 0.147311 0
0.0226298 0.119942 0
0.0339601 0.0931016 0
0.0428423 0.0666448 0
0.0487919 0.0404281 0
0.0515893 0.0141518 0
0.0510149 -0.0124838 0
0.0470402 -0.0398367 0
0.0396369 -0.0682647 0
0.029092 -0.0980559 0
0.0156926 -0.129498 0
0.000267279 -0.162271 0
-0.0163553 -0.196054 0
-0.0324256 -0.229483 0
-0.0461939 -0.261197 0
-0.0546013 -0.285058 0
-0.0545888 -0.294929 0
-0.0463793 -0.281507 0
-0.030196 -0.235489 0
-0.0125618 -0.145458 0
0 0 0
0 0 0
-0.00970821 0.13744 0
-0.0248557 0.219328 0
-0.0365137 0.25837 0
-0.0357536 0.267271 0
-0.0254659 0.256326 0
-0.00854116 0.235829 0
0.0124277 0.210061 0
0.0348477 0.183305 0
0.0571842 0.156436 0
0.0779024 0.130332 0
0.0962598 0.105165 0
0.111514 0.0811062 0
0.123309 0.0578666 0
0.13129 0.0351578 0
0.135284 0.0125979 0
0.135119 -0.0101948 0
0.130714 -0.0336599 0
0.121992 -0.0582371 0
0.109055 -0.0843885 0
0.0920068 -0.112576 0
0.0714071 -0.142852 0
0.0478171 -0.175269 0
0.0228367 -0.209066 0
-0.00193415 -0.243479 0
-0.0231114 -0.273322 0
-0.0373111 -0.293408 0
-0.0404562 -0.29046 0
-0.0284697 -0.251203 0
-0.0115762 -0.159696 0
0 0 0
0 0 0
-0.00901098 0.150847 0
-0.0197736 0.229512 0
-0.0225825 0.257175 0
-0.00773235 0.255018 0
0.018079 0.235327 0
0.0481538 0.210386 0
0.0800936 0.1832 0
0.1115 0.156773 0
0.140996 0.131615 0
0.167202 0.108234 0
0.189682 0.0864776 0
0.208 0.0661922 0
0.221988 0.0470005 0
0.23148 0.0285248 0
0.236379 0.0103486 0
0.236586 -0.00794438 0
0.231984 -0.0268195 0
0.222452 -0.0467422 0
0.207892 -0.0682582 0
0.188205 -0.0919134 0
0.163554 -0.118126 0
0.134105 -0.147315 0
0.101047 -0.179263 0
0.0655706 -0.213752 0
0.0305598 -0.247412 0
-0.00110174 -0.276878 0
-0.0209544 -0.286672 0
-0.0205386 -0.261321 0
-0.010129 -0.174529 0
0 0 0
0 0 0
-0.0101915 0.168626 0
-0.00639195 0.234945 0
0.0125998 0.239965 0
0.0479849 0.224695 0
0.0916344 0.198836 0
0.135419 0.172086 0
0.177599 0.146044 0
0.216431 0.122305 0
0.251122 0.100891 0
0.280877 0.0818229 0
0.305684 0.0646934 0
0.32553 0.0490938 0
0.340482 0.0346308 0
0.350603 0.0209112 0
0.355891 0.00754814 0
0.356342 -0.00584514 0
0.351814 -0.0196938 0
0.342168 -0.034423 0
0.327125 -0.0505438 0
0.306408 -0.0685676 0
0.279712 -0.0891679 0
0.246737 -0.113018 0
0.207919 -0.140389 0
0.163695 -0.171552 0
0.11567 -0.205148 0
0.0654496 -0.239818 0
0.0229126 -0.263308 0
-0.00206041 -0.263361 0
-0.00964083 -0.191688 0
0 0 0
0 0 0
0.0118954 0.164939 0
0.0465745 0.213333 0
0.0963361 0.198952 0
0.153479 0.175567 0
0.211873 0.148842 0
0.265389 0.124441 0
0.313422 0.102706 0
0.355368 0.0839788 0
0.391274 0.0679362 0
0.421185 0.054254 0
0.445505 0.0424024 0
0.464638 0.0318515 0
0.478851 0.0222677 0
0.488412 0.0133171 0
0.4934 0.00469331 0
0.493897 -0.00391006 0
0.48976 -0.0128264 0
0.480846 -0.0223891 0
0.466761 -0.0329881 0
0.447113 -0.0450133 0
0.421215 -0.0592142 0
0.388379 -0.0763403 0
0.348141 -0.0969227 0
0.300035 -0.121493 0
0.244002 -0.150314 0
0.179986 -0.183649 0
0.115142 -0.214364 0
0.0566244 -0.235322 0
0.0147914 -0.184532 0
0 0 0
2.77334e-30 0 0
0.082395 0.113953 0
0.170411 0.142385 0
0.255929 0.12635 0
0.330831 0.1069 0
0.395468 0.0873357 0
0.450195 0.0709599 0
0.496041 0.0572977 0
0.534037 0.0458746 0
0.565159 0.0364248 0
0.590381 0.0286824 0
0.610386 0.0221939 0
0.625856 0.0165058 0
0.637158 0.011421 0
0.644659 0.00674238 0
0.648486 0.00228096 0
0.648767 -0.00215214 0
0.645376 -0.00676118 0
0.638189 -0.0117504 0
0.626803 -0.0173337 0
0.610818 -0.0237249 0
0.589396 -0.0315022 0
0.561697 -0.0412436 0
0.5264 -0.0533411 0
0.482183 -0.0681866 0
0.427338 -0.086697 0
0.360152 -0.109789 0
0.27973 -0.133834 0
0.185175 -0.155202 0
0.0880711 -0.126416 0
2.77334e-30 0 0
0.25 0 0
0.359149 0.0481466 0
0.457444 0.0589812 0
0.540708 0.0505642 0
0.604763 0.040956 0
0.654238 0.0318701 0
0.693758 0.0250204 0
0.725039 0.0197518 0
0.749796 0.0154093 0
0.769245 0.0119236 0
0.784606 0.00922532 0
0.796495 0.00706185 0
0.805529 0.00518068 0
0.812006 0.00352157 0
0.816227 0.00202429 0
0.818302 0.000615169 0
0.818338 -0.000779433 0
0.816258 -0.00223881 0
0.811979 -0.00384225 0
0.805225 -0.00564842 0
0.795716 -0.00771596 0
0.782807 -0.010331 0
0.765851 -0.0137797 0
0.743439 -0.0181863 0
0.714164 -0.0236752 0
0.675921 -0.0310187 0
0.626604 -0.0409891 0
0.560181 -0.0522139 0
0.470623 -0.0633208 0
0.364905 -0.0530145 0
0.25 0 0
1 0 0
1 0 0
1 0 0
1 0 0
1 0 0
1 0 0
1 0 0
1 0 0
1 0 0
1 0 0
1 0 0
1 0 0
1 0 0
1 0 0
1 0 0
1 0 0
1 0 0
1 0 0
1 0 0
1 0 0
1 0 0
1 0 0
1 0 0
1 0 0
1 0 0
1 0 0
1 0 0
1 0 0
1 0 0
1 0 0
1 0 0
      </DataArray> 
      <DataArray type="Float64" NumberOfComponents="3" Name="Real Velocity" format="ascii">
0 0 0
0 0 0
0 0 0
0 0 0
0 0 0
0 0 0
0 0 0
0 0 0
0 0 0
0 0 0
0 0 0
0 0 0
0 0 0
0 0 0
0 0 0