<?xml version="1.0"?>
<VTKFile type="UnstructuredGrid">
  <UnstructuredGrid>
  <Piece NumberOfPoints="5265"  NumberOfCells="1280">
    <Points>
      <DataArray type="Float64" NumberOfComponents="3" format="ascii">
0 0 0
0.25 0 0
0.5 0 0
0.75 0 0
1 0 0
1.25 0 0
1.5 0 0
1.75 0 0
2 0 0
2.25 0 0
2.5 0 0
2.75 0 0
3 0 0
3.25 0 0
3.5 0 0
3.75 0 0
4 0 0
4.25 0 0
4.5 0 0
4.75 0 0
5 0 0
5.25 0 0
5.5 0 0
5.75 0 0
6 0 0
6.25 0 0
6.5 0 0
6.75 0 0
7 0 0
7.25 0 0
7.5 0 0
7.75 0 0
8 0 0
8.25 0 0
8.5 0 0
8.75 0 0
9 0 0
9.25 0 0
9.5 0 0
9.75 0 0
10 0 0
10.25 0 0
10.5 0 0
10.75 0 0
11 0 0
11.25 0 0
11.5 0 0
11.75 0 0
12 0 0
12.25 0 0
12.5 0 0
12.75 0 0
13 0 0
13.25 0 0
13.5 0 0
13.75 0 0
14 0 0
14.25 0 0
14.5 0 0
14.75 0 0
15 0 0
15.25 0 0
15.5 0 0
15.75 0 0
16 0 0
16.25 0 0
16.5 0 0
16.75 0 0
17 0 0
17.25 0 0
17.5 0 0
17.75 0 0
18 0 0
18.25 0 0
18.5 0 0
18.75 0 0
19 0 0
19.25 0 0
19.5 0 0
19.75 0 0
20 0 0
0 0.25 0
0.25 0.25 0
0.5 0.25 0
0.75 0.25 0
1 0.25 0
1.25 0.25 0
1.5 0.25 0
1.75 0.25 0
2 0.25 0
2.25 0.25 0
2.5 0.25 0
2.75 0.25 0
3 0.25 0
3.25 0.25 0
3.5 0.25 0
3.75 0.25 0
4 0.25 0
4.25 0.25 0
4.5 0.25 0
4.75 0.25 0
5 0.25 0
5.25 0.25 0
5.5 0.25 0
5.75 0.25 0
6 0.25 0
6.25 0.25 0
6.5 0.25 0
6.75 0.25 0
7 0.25 0
7.25 0.25 0
7.5 0.25 0
7.75 0.25 0
8 0.25 0
8.25 0.25 0
8.5 0.25 0
8.75 0.25 0
9 0.25 0
9.25 0.25 0
9.5 0.25 0
9.75 0.25 0
10 0.25 0
10.25 0.25 0
10.5 0.25 0
10.75 0.25 0
11 0.25 0
11.25 0.25 0
11.5 0.25 0
11.75 0.25 0
12 0.25 0
12.25 0.25 0
12.5 0.25 0
12.75 0.25 0
13 0.25 0
13.25 0.25 0
13.5 0.25 0
13.75 0.25 0
14 0.25 0
14.25 0.25 0
14.5 0.25 0
14.75 0.25 0
15 0.25 0
15.25 0.25 0
15.5 0.25 0
15.75 0.25 0
16 0.25 0
16.25 0.25 0
16.5 0.25 0
16.75 0.25 0
17 0.25 0
17.25 0.25 0
17.5 0.25 0
17.75 0.25 0
18 0.25 0
18.25 0.25 0
18.5 0.25 0
18.75 0.25 0
19 0.25 0
19.25 0.25 0
19.5 0.25 0
19.75 0.25 0
20 0.25 0
0 0.5 0
0.25 0.5 0
0.5 0.5 0
0.75 0.5 0
1 0.5 0
1.25 0.5 0
1.5 0.5 0
1.75 0.5 0
2 0.5 0
2.25 0.5 0
2.5 0.5 0
2.75 0.5 0
3 0.5 0
3.25 0.5 0
3.5 0.5 0
3.75 0.5 0
4 0.5 0
4.25 0.5 0
4.5 0.5 0
4.75 0.5 0
5 0.5 0
5.25 0.5 0
5.5 0.5 0
5.75 0.5 0
6 0.5 0
6.25 0.5 0
6.5 0.5 0
6.75 0.5 0
7 0.5 0
7.25 0.5 0
7.5 0.5 0
7.75 0.5 0
8 0.5 0
8.25 0.5 0
8.5 0.5 0
8.75 0.5 0
9 0.5 0
9.25 0.5 0
9.5 0.5 0
9.75 0.5 0
10 0.5 0
10.25 0.5 0
10.5 0.5 0
10.75 0.5 0
11 0.5 0
11.25 0.5 0
11.5 0.5 0
11.75 0.5 0
12 0.5 0
12.25 0.5 0
12.5 0.5 0
12.75 0.5 0
13 0.5 0
13.25 0.5 0
13.5 0.5 0
13.75 0.5 0
14 0.5 0
14.25 0.5 0
14.5 0.5 0
14.75 0.5 0
15 0.5 0
15.25 0.5 0
15.5 0.5 0
15.75 0.5 0
16 0.5 0
16.25 0.5 0
16.5 0.5 0
16.75 0.5 0
17 0.5 0
17.25 0.5 0
17.5 0.5 0
17.75 0.5 0
18 0.5 0
18.25 0.5 0
18.5 0.5 0
18.75 0.5 0
19 0.5 0
19.25 0.5 0
19.5 0.5 0
19.75 0.5 0
20 0.5 0
0 0.75 0
0.25 0.75 0
0.5 0.75 0
0.75 0.75 0
1 0.75 0
1.25 0.75 0
1.5 0.75 0
1.75 0.75 0
2 0.75 0
2.25 0.75 0
2.5 0.75 0
2.75 0.75 0
3 0.75 0
3.25 0.75 0
3.5 0.75 0
3.75 0.75 0
4 0.75 0
4.25 0.75 0
4.5 0.75 0
4.75 0.75 0
5 0.75 0
5.25 0.75 0
5.5 0.75 0
5.75 0.75 0
6 0.75 0
6.25 0.75 0
6.5 0.75 0
6.75 0.75 0
7 0.75 0
7.25 0.75 0
7.5 0.75 0
7.75 0.75 0
8 0.75 0
8.25 0.75 0
8.5 0.75 0
8.75 0.75 0
9 0.75 0
9.25 0.75 0
9.5 0.75 0
9.75 0.75 0
10 0.75 0
10.25 0.75 0
10.5 0.75 0
10.75 0.75 0
11 0.75 0
11.25 0.75 0
11.5 0.75 0
11.75 0.75 0
12 0.75 0
12.25 0.75 0
12.5 0.75 0
12.75 0.75 0
13 0.75 0
13.25 0.75 0
13.5 0.75 0
13.75 0.75 0
14 0.75 0
14.25 0.75 0
14.5 0.75 0
14.75 0.75 0
15 0.75 0
15.25 0.75 0
15.5 0.75 0
15.75 0.75 0
16 0.75 0
16.25 0.75 0
16.5 0.75 0
16.75 0.75 0
17 0.75 0
17.25 0.75 0
17.5 0.75 0
17.75 0.75 0
18 0.75 0
18.25 0.75 0
18.5 0.75 0
18.75 0.75 0
19 0.75 0
19.25 0.75 0
19.5 0.75 0
19.75 0.75 0
20 0.75 0
0 1 0
0.25 1 0
0.5 1 0
0.75 1 0
1 1 0
1.25 1 0
1.5 1 0
1.75 1 0
2 1 0
2.25 1 0
2.5 1 0
2.75 1 0
3 1 0
3.25 1 0
3.5 1 0
3.75 1 0
4 1 0
4.25 1 0
4.5 1 0
4.75 1 0
5 1 0
5.25 1 0
5.5 1 0
5.75 1 0
6 1 0
6.25 1 0
6.5 1 0
6.75 1 0
7 1 0
7.25 1 0
7.5 1 0
7.75 1 0
8 1 0
8.25 1 0
8.5 1 0
8.75 1 0
9 1 0
9.25 1 0
9.5 1 0
9.75 1 0
10 1 0
10.25 1 0
10.5 1 0
10.75 1 0
11 1 0
11.25 1 0
11.5 1 0
11.75 1 0
12 1 0
12.25 1 0
12.5 1 0
12.75 1 0
13 1 0
13.25 1 0
13.5 1 0
13.75 1 0
14 1 0
14.25 1 0
14.5 1 0
14.75 1 0
15 1 0
15.25 1 0
15.5 1 0
15.75 1 0
16 1 0
16.25 1 0
16.5 1 0
16.75 1 0
17 1 0
17.25 1 0
17.5 1 0
17.75 1 0
18 1 0
18.25 1 0
18.5 1 0
18.75 1 0
19 1 0
19.25 1 0
19.5 1 0
19.75 1 0
20 1 0
0 1.25 0
0.25 1.25 0
0.5 1.25 0
0.75 1.25 0
1 1.25 0
1.25 1.25 0
1.5 1.25 0
1.75 1.25 0
2 1.25 0
2.25 1.25 0
2.5 1.25 0
2.75 1.25 0
3 1.25 0
3.25 1.25 0
3.5 1.25 0
3.75 1.25 0
4 1.25 0
4.25 1.25 0
4.5 1.25 0
4.75 1.25 0
5 1.25 0
5.25 1.25 0
5.5 1.25 0
5.75 1.25 0
6 1.25 0
6.25 1.25 0
6.5 1.25 0
6.75 1.25 0
7 1.25 0
7.25 1.25 0
7.5 1.25 0
7.75 1.25 0
8 1.25 0
8.25 1.25 0
8.5 1.25 0
8.75 1.25 0
9 1.25 0
9.25 1.25 0
9.5 1.25 0
9.75 1.25 0
10 1.25 0
10.25 1.25 0
10.5 1.25 0
10.75 1.25 0
11 1.25 0
11.25 1.25 0
11.5 1.25 0
11.75 1.25 0
12 1.25 0
12.25 1.25 0
12.5 1.25 0
12.75 1.25 0
13 1.25 0
13.25 1.25 0
13.5 1.25 0
13.75 1.25 0
14 1.25 0
14.25 1.25 0
14.5 1.25 0
14.75 1.25 0
15 1.25 0
15.25 1.25 0
15.5 1.25 0
15.75 1.25 0
16 1.25 0
16.25 1.25 0
16.5 1.25 0
16.75 1.25 0
17 1.25 0
17.25 1.25 0
17.5 1.25 0
17.75 1.25 0
18 1.25 0
18.25 1.25 0
18.5 1.25 0
18.75 1.25 0
19 1.25 0
19.25 1.25 0
19.5 1.25 0
19.75 1.25 0
20 1.25 0
0 1.5 0
0.25 1.5 0
0.5 1.5 0
0.75 1.5 0
1 1.5 0
1.25 1.5 0
1.5 1.5 0
1.75 1.5 0
2 1.5 0
2.25 1.5 0
2.5 1.5 0
2.75 1.5 0
3 1.5 0
3.25 1.5 0
3.5 1.5 0
3.75 1.5 0
4 1.5 0
4.25 1.5 0
4.5 1.5 0
4.75 1.5 0
5 1.5 0
5.25 1.5 0
5.5 1.5 0
5.75 1.5 0
6 1.5 0
6.25 1.5 0
6.5 1.5 0
6.75 1.5 0
7 1.5 0
7.25 1.5 0
7.5 1.5 0
7.75 1.5 0
8 1.5 0
8.25 1.5 0
8.5 1.5 0
8.75 1.5 0
9 1.5 0
9.25 1.5 0
9.5 1.5 0
9.75 1.5 0
10 1.5 0
10.25 1.5 0
10.5 1.5 0
10.75 1.5 0
11 1.5 0
11.25 1.5 0
11.5 1.5 0
11.75 1.5 0
12 1.5 0
12.25 1.5 0
12.5 1.5 0
12.75 1.5 0
13 1.5 0
13.25 1.5 0
13.5 1.5 0
13.75 1.5 0
14 1.5 0
14.25 1.5 0
14.5 1.5 0
14.75 1.5 0
15 1.5 0
15.25 1.5 0
15.5 1.5 0
15.75 1.5 0
16 1.5 0
16.25 1.5 0
16.5 1.5 0
16.75 1.5 0
17 1.5 0
17.25 1.5 0
17.5 1.5 0
17.75 1.5 0
18 1.5 0
18.25 1.5 0
18.5 1.5 0
18.75 1.5 0
19 1.5 0
19.25 1.5 0
19.5 1.5 0
19.75 1.5 0
20 1.5 0
0 1.75 0
0.25 1.75 0
0.5 1.75 0
0.75 1.75 0
1 1.75 0
1.25 1.75 0
1.5 1.75 0
1.75 1.75 0
2 1.75 0
2.25 1.75 0
2.5 1.75 0
2.75 1.75 0
3 1.75 0
3.25 1.75 0
3.5 1.75 0
3.75 1.75 0
4 1.75 0
4.25 1.75 0
4.5 1.75 0
4.75 1.75 0
5 1.75 0
5.25 1.75 0
5.5 1.75 0
5.75 1.75 0
6 1.75 0
6.25 1.75 0
6.5 1.75 0
6.75 1.75 0
7 1.75 0
7.25 1.75 0
7.5 1.75 0
7.75 1.75 0
8 1.75 0
8.25 1.75 0
8.5 1.75 0
8.75 1.75 0
9 1.75 0
9.25 1.75 0
9.5 1.75 0
9.75 1.75 0
10 1.75 0
10.25 1.75 0
10.5 1.75 0
10.75 1.75 0
11 1.75 0
11.25 1.75 0
11.5 1.75 0
11.75 1.75 0
12 1.75 0
12.25 1.75 0
12.5 1.75 0
12.75 1.75 0
13 1.75 0
13.25 1.75 0
13.5 1.75 0
13.75 1.75 0
14 1.75 0
14.25 1.75 0
14.5 1.75 0
14.75 1.75 0
15 1.75 0
15.25 1.75 0
15.5 1.75 0
15.75 1.75 0
16 1.75 0
16.25 1.75 0
16.5 1.75 0
16.75 1.75 0
17 1.75 0
17.25 1.75 0
17.5 1.75 0
17.75 1.75 0
18 1.75 0
18.25 1.75 0
18.5 1.75 0
18.75 1.75 0
19 1.75 0
19.25 1.75 0
19.5 1.75 0
19.75 1.75 0
20 1.75 0
0 2 0
0.25 2 0
0.5 2 0
0.75 2 0
1 2 0
1.25 2 0
1.5 2 0
1.75 2 0
2 2 0
2.25 2 0
2.5 2 0
2.75 2 0
3 2 0
3.25 2 0
3.5 2 0
3.75 2 0
4 2 0
4.25 2 0
4.5 2 0
4.75 2 0
5 2 0
5.25 2 0
5.5 2 0
5.75 2 0
6 2 0
6.25 2 0
6.5 2 0
6.75 2 0
7 2 0
7.25 2 0
7.5 2 0
7.75 2 0
8 2 0
8.25 2 0
8.5 2 0
8.75 2 0
9 2 0
9.25 2 0
9.5 2 0
9.75 2 0
10 2 0
10.25 2 0
10.5 2 0
10.75 2 0
11 2 0
11.25 2 0
11.5 2 0
11.75 2 0
12 2 0
12.25 2 0
12.5 2 0
12.75 2 0
13 2 0
13.25 2 0
13.5 2 0
13.75 2 0
14 2 0
14.25 2 0
14.5 2 0
14.75 2 0
15 2 0
15.25 2 0
15.5 2 0
15.75 2 0
16 2 0
16.25 2 0
16.5 2 0
16.75 2 0
17 2 0
17.25 2 0
17.5 2 0
17.75 2 0
18 2 0
18.25 2 0
18.5 2 0
18.75 2 0
19 2 0
19.25 2 0
19.5 2 0
19.75 2 0
20 2 0
0 2.25 0
0.25 2.25 0
0.5 2.25 0
0.75 2.25 0
1 2.25 0
1.25 2.25 0
1.5 2.25 0
1.75 2.25 0
2 2.25 0
2.25 2.25 0
2.5 2.25 0
2.75 2.25 0
3 2.25 0
3.25 2.25 0
3.5 2.25 0
3.75 2.25 0
4 2.25 0
4.25 2.25 0
4.5 2.25 0
4.75 2.25 0
5 2.25 0
5.25 2.25 0
5.5 2.25 0
5.75 2.25 0
6 2.25 0
6.25 2.25 0
6.5 2.25 0
6.75 2.25 0
7 2.25 0
7.25 2.25 0
7.5 2.25 0
7.75 2.25 0
8 2.25 0
8.25 2.25 0
8.5 2.25 0
8.75 2.25 0
9 2.25 0
9.25 2.25 0
9.5 2.25 0
9.75 2.25 0
10 2.25 0
10.25 2.25 0
10.5 2.25 0
10.75 2.25 0
11 2.25 0
11.25 2.25 0
11.5 2.25 0
11.75 2.25 0
12 2.25 0
12.25 2.25 0
12.5 2.25 0
12.75 2.25 0
13 2.25 0
13.25 2.25 0
13.5 2.25 0
13.75 2.25 0
14 2.25 0
14.25 2.25 0
14.5 2.25 0
14.75 2.25 0
15 2.25 0
15.25 2.25 0
15.5 2.25 0
15.75 2.25 0
16 2.25 0
16.25 2.25 0
16.5 2.25 0
16.75 2.25 0
17 2.25 0
17.25 2.25 0
17.5 2.25 0
17.75 2.25 0
18 2.25 0
18.25 2.25 0
18.5 2.25 0
18.75 2.25 0
19 2.25 0
19.25 2.25 0
19.5 2.25 0
19.75 2.25 0
20 2.25 0
0 2.5 0
0.25 2.5 0
0.5 2.5 0
0.75 2.5 0
1 2.5 0
1.25 2.5 0
1.5 2.5 0
1.75 2.5 0
2 2.5 0
2.25 2.5 0
2.5 2.5 0
2.75 2.5 0
3 2.5 0
3.25 2.5 0
3.5 2.5 0
3.75 2.5 0
4 2.5 0
4.25 2.5 0
4.5 2.5 0
4.75 2.5 0
5 2.5 0
5.25 2.5 0
5.5 2.5 0
5.75 2.5 0
6 2.5 0
6.25 2.5 0
6.5 2.5 0
6.75 2.5 0
7 2.5 0
7.25 2.5 0
7.5 2.5 0
7.75 2.5 0
8 2.5 0
8.25 2.5 0
8.5 2.5 0
8.75 2.5 0
9 2.5 0
9.25 2.5 0
9.5 2.5 0
9.75 2.5 0
10 2.5 0
10.25 2.5 0
10.5 2.5 0
10.75 2.5 0
11 2.5 0
11.25 2.5 0
11.5 2.5 0
11.75 2.5 0
12 2.5 0
12.25 2.5 0
12.5 2.5 0
12.75 2.5 0
13 2.5 0
13.25 2.5 0
13.5 2.5 0
13.75 2.5 0
14 2.5 0
14.25 2.5 0
14.5 2.5 0
14.75 2.5 0
15 2.5 0
15.25 2.5 0
15.5 2.5 0
15.75 2.5 0
16 2.5 0
16.25 2.5 0
16.5 2.5 0
16.75 2.5 0
17 2.5 0
17.25 2.5 0
17.5 2.5 0
17.75 2.5 0
18 2.5 0
18.25 2.5 0
18.5 2.5 0
18.75 2.5 0
19 2.5 0
19.25 2.5 0
19.5 2.5 0
19.75 2.5 0
20 2.5 0
0 2.75 0
0.25 2.75 0
0.5 2.75 0
0.75 2.75 0
1 2.75 0
1.25 2.75 0
1.5 2.75 0
1.75 2.75 0
2 2.75 0
2.25 2.75 0
2.5 2.75 0
2.75 2.75 0
3 2.75 0
3.25 2.75 0
3.5 2.75 0
3.75 2.75 0
4 2.75 0
4.25 2.75 0
4.5 2.75 0
4.75 2.75 0
5 2.75 0
5.25 2.75 0
5.5 2.75 0
5.75 2.75 0
6 2.75 0
6.25 2.75 0
6.5 2.75 0
6.75 2.75 0
7 2.75 0
7.25 2.75 0
7.5 2.75 0
7.75 2.75 0
8 2.75 0
8.25 2.75 0
8.5 2.75 0
8.75 2.75 0
9 2.75 0
9.25 2.75 0
9.5 2.75 0
9.75 2.75 0
10 2.75 0
10.25 2.75 0
10.5 2.75 0
10.75 2.75 0
11 2.75 0
11.25 2.75 0
11.5 2.75 0
[...]
    <PointData>
      <DataArray type="Float64" NumberOfComponents="3" Name="Velocity" format="ascii">
1 0 0
1.00011 0 0
1.00033 0 0
1.00059 0 0
1.00083 0 0
1.00107 0 0
1.00133 0 0
1.0016 0 0
1.00187 0 0
1.00214 0 0
1.00243 0 0
1.00273 0 0
1.00304 0 0
1.00336 0 0
1.00369 0 0
1.00403 0 0
1.00438 0 0
1.00474 0 0
1.00511 0 0
1.00548 0 0
1.00586 0 0
1.00623 0 0
1.0066 0 0
1.00697 0 0
1.00732 0 0
1.00766 0 0
1.00798 0 0
1.00828 0 0
1.00854 0 0
1.00878 0 0
1.00898 0 0
1.00914 0 0
1.00925 0 0
1.00933 0 0
1.00935 0 0
1.00933 0 0
1.00927 0 0
1.00916 0 0
1.00901 0 0
1.00883 0 0
1.0086 0 0
1.00834 0 0
1.00806 0 0
1.00775 0 0
1.00743 0 0
1.00709 0 0
1.00674 0 0
1.00638 0 0
1.00603 0 0
1.00568 0 0
1.00533 0 0
1.00499 0 0
1.00465 0 0
1.00433 0 0
1.00403 0 0
1.00374 0 0
1.00346 0 0
1.0032 0 0
1.00295 0 0
1.00272 0 0
1.0025 0 0
1.0023 0 0
1.00212 0 0
1.00194 0 0
1.00179 0 0
1.00164 0 0
1.00151 0 0
1.00139 0 0
1.00128 0 0
1.00118 0 0
1.00109 0 0
1.00101 0 0
1.00095 0 0
1.00089 0 0
1.00083 0 0
1.00079 0 0
1.00075 0 0
1.00073 0 0
1.0007 0 0
1.00069 0 0
1.00068 0 0
1 0 0
1.00011 -0.000193199 0
1.00032 -0.000251906 0
1.00059 -0.000246059 0
1.00083 -0.000245595 0
1.00107 -0.000249789 0
1.00133 -0.000257915 0
1.00159 -0.000267183 0
1.00186 -0.000274807 0
1.00214 -0.000282794 0
1.00243 -0.000293153 0
1.00273 -0.000304425 0
1.00303 -0.000315151 0
1.00335 -0.00032573 0
1.00369 -0.000336562 0
1.00403 -0.000346905 0
1.00438 -0.000356015 0
1.00474 -0.000363805 0
1.00511 -0.000370185 0
1.00548 -0.000374462 0
1.00586 -0.000375944 0
1.00623 -0.000374288 0
1.00661 -0.000369154 0
1.00697 -0.000360364 0
1.00733 -0.00034774 0
1.00767 -0.000330778 0
1.00799 -0.000308972 0
1.00829 -0.000282687 0
1.00856 -0.000252287 0
1.0088 -0.000218096 0
1.009 -0.000180438 0
1.00916 -0.000139581 0
1.00928 -9.57958e-05 0
1.00935 -5.01868e-05 0
1.00938 -3.85886e-06 0
1.00936 4.21909e-05 0
1.00929 8.69656e-05 0
1.00918 0.000129918 0
1.00903 0.0001705 0
1.00884 0.00020805 0
1.00861 0.000241903 0
1.00836 0.000271671 0
1.00807 0.00029696 0
1.00776 0.000317662 0
1.00743 0.000333666 0
1.00709 0.000345207 0
1.00674 0.000352521 0
1.00638 0.0003559 0
1.00603 0.000355638 0
1.00567 0.000352082 0
1.00532 0.00034558 0
1.00498 0.000336655 0
1.00465 0.000325831 0
1.00433 0.00031343 0
1.00402 0.000299776 0
1.00373 0.000285198 0
1.00345 0.000270027 0
1.00319 0.000254519 0
1.00294 0.000238934 0
1.00271 0.000223416 0
1.00249 0.00020811 0
1.00229 0.000193147 0
1.00211 0.000178656 0
1.00194 0.000164676 0
1.00178 0.000151246 0
1.00163 0.000138396 0
1.0015 0.000126156 0
1.00138 0.000114513 0
1.00127 0.000103451 0
1.00118 9.2948e-05 0
1.00109 8.29803e-05 0
1.00101 7.35103e-05 0
1.00094 6.45003e-05 0
1.00088 5.59047e-05 0
1.00083 4.7678e-05 0
1.00079 3.97764e-05 0
1.00075 3.21562e-05 0
1.00072 2.47584e-05 0
1.0007 1.75239e-05 0
1.00069 1.04325e-05 0
1.00068 3.46407e-06 0
1 0 0
1.00011 -0.000385281 0
1.00032 -0.000502444 0
1.00058 -0.000490865 0
1.00082 -0.000489918 0
1.00106 -0.000498313 0
1.00132 -0.00051476 0
1.00158 -0.000533487 0
1.00185 -0.000548719 0
1.00212 -0.000564719 0
1.00241 -0.000585751 0
1.00271 -0.000608663 0
1.00302 -0.000630308 0
1.00334 -0.000651609 0
1.00367 -0.000673492 0
1.00401 -0.000694588 0
1.00437 -0.000713525 0
1.00473 -0.000729694 0
1.0051 -0.000742485 0
1.00548 -0.000751075 0
1.00586 -0.000754639 0
1.00624 -0.000752132 0
1.00662 -0.000742509 0
1.00699 -0.000725206 0
1.00735 -0.000699654 0
1.0077 -0.000665589 0
1.00803 -0.000622742 0
1.00833 -0.000570733 0
1.00861 -0.00050918 0
1.00885 -0.000439342 0
1.00906 -0.000362478 0
1.00922 -0.000279861 0
1.00934 -0.000192766 0
1.00942 -0.000102211 0
1.00945 -9.21351e-06 0
1.00943 8.4064e-05 0
1.00936 0.000175459 0
1.00925 0.000263101 0
1.00909 0.00034512 0
1.0089 0.000420623 0
1.00866 0.000488716 0
1.0084 0.000548519 0
1.0081 0.000599151 0
1.00779 0.000640455 0
1.00745 0.000672279 0
1.00711 0.000695076 0
1.00675 0.000709301 0
1.00639 0.000715537 0
1.00602 0.000714367 0
1.00566 0.000706702 0
1.00531 0.000693453 0
1.00497 0.000675405 0
1.00463 0.000653341 0
1.00431 0.000628064 0
1.004 0.000600379 0
1.00371 0.000570938 0
1.00343 0.000540392 0
1.00316 0.000509193 0
1.00292 0.00047779 0
1.00269 0.000446554 0
1.00247 0.000415856 0
1.00227 0.00038588 0
1.00209 0.000356811 0
1.00192 0.000328775 0
1.00176 0.000301898 0
1.00162 0.000276206 0
1.00148 0.000251725 0
1.00137 0.000228441 0
1.00126 0.000206341 0
1.00116 0.000185368 0
1.00107 0.000165468 0
1.001 0.000146565 0
1.00093 0.000128587 0
1.00087 0.000111441 0
1.00082 9.50346e-05 0
1.00077 7.92796e-05 0
1.00074 6.4088e-05 0
1.00071 4.93417e-05 0
1.00069 3.49228e-05 0
1.00068 2.07897e-05 0
1.00067 6.90087e-06 0
1 0 0
1.0001 -0.000575174 0
1.00032 -0.000750164 0
1.00057 -0.000733005 0
1.00081 -0.000731731 0
1.00105 -0.000744467 0
1.0013 -0.000769334 0
1.00156 -0.000797677 0
1.00182 -0.000820838 0
1.0021 -0.000845216 0
1.00238 -0.000877213 0
1.00268 -0.000912127 0
1.00299 -0.000945258 0
1.00331 -0.000977941 0
1.00364 -0.00101151 0
1.00399 -0.00104401 0
1.00434 -0.00107351 0
1.00471 -0.00109891 0
1.00509 -0.00111913 0
1.00547 -0.001133 0
1.00586 -0.00113937 0
1.00625 -0.00113672 0
1.00663 -0.00112356 0
1.00702 -0.0010986 0
1.00739 -0.00106056 0
1.00775 -0.0010094 0
1.00809 -0.000945075 0
1.0084 -0.000866951 0
1.00869 -0.000774407 0
1.00894 -0.000668875 0
1.00916 -0.000551786 0
1.00933 -0.000425585 0
1.00946 -0.000292721 0
1.00953 -0.000154867 0
1.00956 -1.36954e-05 0
1.00954 0.000127922 0
1.00947 0.000267113 0
1.00936 0.000400808 0
1.00919 0.000525935 0
1.00899 0.000640875 0
1.00874 0.000744011 0
1.00847 0.000834215 0
1.00816 0.000910361 0
1.00784 0.000972304 0
1.00749 0.0010199 0
1.00713 0.00105369 0
1.00676 0.00107421 0
1.00639 0.00108251 0
1.00602 0.00107965 0
1.00565 0.00106705 0
1.00529 0.00104616 0
1.00494 0.00101809 0
1.0046 0.000983969 0
1.00427 0.000945084 0
1.00396 0.000902717 0
1.00367 0.000857823 0
1.00339 0.000811357 0
1.00313 0.000763998 0
1.00288 0.000716423 0
1.00265 0.000669189 0
1.00243 0.000622852 0
1.00224 0.000577669 0
1.00205 0.000533896 0
1.00188 0.000491725 0
1.00173 0.00045135 0
1.00158 0.000412795 0
1.00146 0.00037608 0
1.00134 0.000341187 0
1.00123 0.000308095 0
1.00114 0.000276714 0
1.00105 0.000246951 0
1.00097 0.000218697 0
1.00091 0.000191838 0
1.00085 0.000166233 0
1.0008 0.000141742 0
1.00076 0.00011823 0
1.00072 9.55663e-05 0
1.00069 7.35718e-05 0
1.00067 5.20694e-05 0
1.00066 3.09957e-05 0
1.00065 1.02871e-05 0
1 0 0
1.0001 -0.000761808 0
1.00031 -0.000993614 0
1.00056 -0.000971063 0
1.0008 -0.000969799 0
1.00103 -0.000987148 0
1.00127 -0.00102043 0
1.00153 -0.00105852 0
1.00179 -0.00109027 0
1.00206 -0.00112373 0
1.00235 -0.00116696 0
1.00264 -0.00121423 0
1.00295 -0.00125979 0
1.00327 -0.00130503 0
1.0036 -0.00135133 0
1.00395 -0.00139615 0
1.00431 -0.00143695 0
1.00468 -0.00147269 0
1.00507 -0.00150234 0
1.00546 -0.00152341 0
1.00585 -0.00153343 0
1.00626 -0.00153126 0
1.00666 -0.00151579 0
1.00705 -0.0014846 0
1.00744 -0.00143528 0
1.00782 -0.00136719 0
1.00817 -0.00127973 0
1.0085 -0.00117415 0
1.00881 -0.0010517 0
1.00907 -0.000911833 0
1.0093 -0.000754026 0
1.00948 -0.000581498 0
1.00962 -0.00039747 0
1.0097 -0.000206948 0
1.00973 -1.49359e-05 0
1.00971 0.000176067 0
1.00963 0.000363563 0
1.0095 0.000544298 0
1.00933 0.00071502 0
1.00911 0.000871962 0
1.00885 0.00101136 0
1.00856 0.00113243 0
1.00824 0.00123438 0
1.0079 0.00131713 0
1.00753 0.00138059 0
1.00716 0.00142513 0
1.00678 0.00145112 0
1.00639 0.00146044 0
1.00601 0.00145495 0
1.00563 0.00143632 0
1.00526 0.00140622 0
1.0049 0.00136654 0
1.00456 0.00131915 0
1.00423 0.00126567 0
1.00391 0.0012077 0
1.00361 0.00114646 0
1.00333 0.00108318 0
1.00307 0.00101891 0
1.00282 0.000954691 0
1.00259 0.000891097 0
1.00238 0.000828715 0
1.00218 0.000767982 0
1.002 0.000709339 0
1.00183 0.000652953 0
1.00168 0.000598996 0
1.00154 0.000547524 0
1.00141 0.000498594 0
1.0013 0.000452152 0
1.00119 0.00040814 0
1.0011 0.000366437 0
1.00102 0.000326922 0
1.00094 0.000289438 0
1.00088 0.000253829 0
1.00082 0.000219904 0
1.00077 0.000187471 0
1.00073 0.00015635 0
1.00069 0.000126362 0
1.00067 9.72708e-05 0
1.00065 6.88369e-05 0
1.00063 4.0975e-05 0
1.00063 1.35996e-05 0
1 0 0
1.0001 -0.000943935 0
1.0003 -0.00123133 0
1.00055 -0.00120373 0
1.00078 -0.00120267 0
1.001 -0.00122483 0
1.00124 -0.00126688 0
1.00149 -0.00131511 0
1.00175 -0.00135581 0
1.00202 -0.00139888 0
1.0023 -0.00145422 0
1.00259 -0.00151481 0
1.0029 -0.00157362 0
1.00322 -0.00163239 0
1.00355 -0.00169285 0
1.0039 -0.00175165 0
1.00427 -0.00180539 0
1.00464 -0.00185312 0
1.00503 -0.00189386 0
1.00544 -0.00192404 0
1.00585 -0.00194011 0
1.00626 -0.00194051 0
1.00668 -0.00192372 0
1.0071 -0.00188711 0
1.0075 -0.00182811 0
1.0079 -0.00174485 0
1.00828 -0.00163547 0
1.00864 -0.001502 0
1.00896 -0.00134649 0
1.00924 -0.00116862 0
1.00949 -0.000968072 0
1.00968 -0.000748001 0
1.00983 -0.000511555 0
1.00993 -0.000265765 0
1.00996 -1.76645e-05 0
1.00993 0.000228772 0
1.00984 0.000469567 0
1.0097 0.000700974 0
1.00951 0.000919247 0
1.00928 0.00111958 0
1.009 0.00129717 0
1.00869 0.00145084 0
1.00834 0.00157939 0
1.00798 0.00168272 0
1.00759 0.00176075 0
1.0072 0.00181437 0
1.00679 0.00184446 0
1.00639 0.00185338 0
1.00599 0.00184348 0
1.0056 0.00181689 0
1.00522 0.00177575 0
1.00485 0.00172271 0
1.0045 0.00166042 0
1.00416 0.00159082 0
1.00384 0.0015158 0
1.00354 0.00143696 0
1.00326 0.00135588 0
1.003 0.00127388 0
1.00275 0.00119226 0
1.00252 0.00111169 0
1.00231 0.00103283 0
1.00212 0.000956236 0
1.00194 0.000882483 0
1.00177 0.000811722 0
1.00162 0.000744105 0
1.00148 0.000679707 0
1.00136 0.000618598 0
1.00125 0.000560681 0
1.00115 0.000505855 0
1.00105 0.000453965 0
1.00097 0.000404851 0
1.0009 0.000358308 0
1.00084 0.000314129 0
1.00078 0.000272072 0
1.00073 0.00023189 0
1.00069 0.000193357 0
1.00066 0.000156247 0
1.00064 0.00012026 0
1.00062 8.5098e-05 0
1.0006 5.06515e-05 0
1.0006 1.68118e-05 0
1 0 0
1.0001 -0.00112031 0
1.00029 -0.00146185 0
1.00053 -0.00142968 0
1.00075 -0.00142889 0
1.00097 -0.00145598 0
1.0012 -0.0015075 0
1.00145 -0.00156655 0
1.0017 -0.00161629 0
1.00196 -0.0016693 0
1.00224 -0.00173823 0
1.00252 -0.00181372 0
1.00283 -0.00188647 0
1.00315 -0.00195953 0
1.00349 -0.00203597 0
1.00384 -0.00211114 0
1.00421 -0.00218039 0
1.00459 -0.00224229 0
1.00499 -0.00229541 0
1.00541 -0.00233661 0
1.00583 -0.00236272 0
1.00627 -0.00236928 0
1.00671 -0.00235184 0
1.00715 -0.00231 0
1.00758 -0.00224337 0
1.00801 -0.00214826 0
1.00841 -0.00202101 0
1.0088 -0.00186015 0
1.00915 -0.00166422 0
1.00946 -0.00143964 0
1.00972 -0.0011928 0
1.00993 -0.000925495 0
1.01009 -0.000639515 0
1.01019 -0.00033863 0
1.01023 -2.66103e-05 0
1.01021 0.000286307 0
1.01012 0.000589886 0
1.00997 0.000878241 0
1.00976 0.00114549 0
1.0095 0.00138943 0
1.00919 0.00160787 0
1.00885 0.00179714 0
1.00848 0.00195357 0
1.00808 0.00207688 0
1.00767 0.00216681 0
1.00724 0.00222639 0
1.00681 0.00225866 0
1.00639 0.00226543 0
1.00597 0.00224847 0
1.00556 0.00221116 0
1.00517 0.00215685 0
1.00479 0.00208856 0
1.00442 0.00200931 0
1.00408 0.00192149 0
1.00376 0.00182749 0
1.00345 0.00172944 0
1.00317 0.00162947 0
1.00291 0.00152884 0
1.00266 0.0014288 0
1.00243 0.00133038 0
1.00222 0.00123457 0
1.00203 0.00114185 0
1.00186 0.00105267 0
1.0017 0.000967292 0
1.00155 0.00088595 0
1.00142 0.000808656 0
1.00129 0.000735422 0
1.00119 0.00066612 0
1.00109 0.000600624 0
1.001 0.000538724 0
1.00092 0.000480212 0
1.00085 0.000424825 0
1.00079 0.000372305 0
1.00074 0.000322351 0
1.00069 0.000274667 0
1.00065 0.000228973 0
1.00062 0.000184991 0
1.0006 0.000142361 0
1.00058 0.000100726 0
1.00057 5.99492e-05 0
1.00056 1.98969e-05 0
1 0 0
1.00009 -0.00128975 0
1.00028 -0.00168344 0
1.00051 -0.00164718 0
1.00072 -0.00164705 0
1.00093 -0.0016794 0
1.00115 -0.0017406 0
1.00139 -0.00181089 0
1.00163 -0.00187055 0
1.00189 -0.00193449 0
1.00216 -0.00201767 0
1.00244 -0.00210904 0
1.00275 -0.00219759 0
1.00307 -0.00228701 0
1.0034 -0.00238097 0
1.00376 -0.00247432 0
1.00413 -0.00256189 0
1.00453 -0.0026412 0
1.00494 -0.0027098 0
1.00537 -0.00276477 0
1.00581 -0.00280324 0
1.00627 -0.00281903 0
1.00673 -0.00280597 0
1.00721 -0.00276302 0
1.00767 -0.00268915 0
1.00813 -0.00258094 0
1.00857 -0.00243498 0
1.00899 -0.00224727 0
1.00938 -0.00201379 0
1.00972 -0.00174312 0
1.01001 -0.00144382 0
1.01025 -0.00111983 0
1.01042 -0.000775134 0
1.01052 -0.000412118 0
1.01057 -3.31803e-05 0
1.01054 0.00034838 0
1.01044 0.000719264 0
1.01028 0.00107077 0
1.01005 0.00139422 0
1.00976 0.00168769 0
1.00942 0.0019493 0
1.00904 0.00217444 0
1.00863 0.00235853 0
1.0082 0.00250153 0
1.00775 0.00260346 0
1.00729 0.00266826 0
1.00683 0.00269987 0
1.00638 0.00270078 0
1.00594 0.00267345 0
1.00551 0.00262235 0
1.0051 0.00255193 0
1.0047 0.00246555 0
1.00433 0.00236656 0
1.00398 0.00225802 0
1.00365 0.00214303 0
1.00334 0.00202406 0
1.00306 0.00190359 0
1.00279 0.00178297 0
1.00255 0.00166353 0
1.00233 0.00154651 0
1.00212 0.00143315 0
1.00193 0.00132384 0
1.00176 0.00121896 0
1.0016 0.00111882 0
1.00146 0.0010237 0
1.00133 0.000933541 0
1.00122 0.000848276 0
1.00111 0.00076774 0
1.00102 0.000691772 0
1.00093 0.000620096 0
1.00086 0.000552438 0
1.00079 0.000488479 0
1.00073 0.000427901 0
1.00068 0.000370348 0
1.00064 0.000315461 0
1.0006 0.000262909 0
1.00057 0.00021236 0
1.00055 0.000163394 0
1.00053 0.000115592 0
1.00052 6.87915e-05 0
1.00052 2.28304e-05 0
1 0 0
1.00009 -0.00145108 0
1.00026 -0.00189441 0
1.00048 -0.00185447 0
1.00068 -0.00185575 0
1.00088 -0.00189389 0
1.0011 -0.00196451 0
1.00132 -0.00204619 0
1.00156 -0.00211746 0
1.00181 -0.00219394 0
1.00207 -0.00229123 0
1.00235 -0.00239883 0
1.00265 -0.00250625 0
1.00296 -0.00261539 0
1.0033 -0.00272816 0
1.00366 -0.00284087 0
1.00404 -0.00294985 0
1.00444 -0.00305089 0
1.00487 -0.00313979 0
1.00531 -0.00321217 0
1.00578 -0.00326366 0
1.00626 -0.00329124 0
1.00676 -0.0032919 0
1.00726 -0.0032559 0
1.00777 -0.00317355 0
1.00827 -0.00304639 0
1.00875 -0.00287599 0
1.0092 -0.00266201 0
1.00963 -0.00240409 0
1.01001 -0.0020973 0
1.01036 -0.00173673 0
1.01064 -0.00133686 0
1.01084 -0.000912195 0
1.01095 -0.000472807 0
1.01098 -2.87811e-05 0
1.01093 0.000414698 0
1.01082 0.000852446 0
1.01063 0.00127325 0
1.01037 0.0016659 0
1.01005 0.00202054 0
1.00967 0.00232731 0
1.00924 0.00258586 0
1.00879 0.00279587 0
1.00832 0.00295863 0
1.00783 0.00307544 0
1.00734 0.00314705 0
1.00684 0.00317424 0
1.00636 0.00316366 0
1.00589 0.00312196 0
1.00544 0.00305369 0
1.00501 0.00296341 0
1.0046 0.00285514 0
1.00421 0.00273291 0
1.00386 0.00260075 0
1.00352 0.00246268 0
1.00321 0.00232097 0
1.00293 0.00217791 0
1.00266 0.00203548 0
1.00242 0.00189567 0
1.0022 0.00175945 0
1.002 0.00162779 0
1.00182 0.00150125 0
1.00165 0.00138041 0
1.0015 0.00126544 0
1.00136 0.00115652 0
1.00124 0.00105353 0
1.00113 0.000956369 0
1.00103 0.000864811 0
1.00094 0.000778626 0
1.00086 0.000697461 0
1.00079 0.000620963 0
1.00073 0.000548756 0
1.00067 0.000480466 0
1.00062 0.000415666 0
1.00058 0.000353931 0
1.00055 0.000294876 0
1.00052 0.000238119 0
1.0005 0.000183178 0
1.00048 0.000129568 0
1.00047 7.71014e-05 0
1.00047 2.55874e-05 0
1 0 0
1.00008 -0.00160282 0
1.00025 -0.00209304 0
1.00045 -0.00205001 0
1.00064 -0.00205307 0
1.00083 -0.00209731 0
1.00103 -0.00217784 0
1.00125 -0.00227141 0
1.00147 -0.00235481 0
1.00171 -0.00244471 0
1.00196 -0.00255779 0
1.00224 -0.00268334 0
1.00253 -0.00281066 0
1.00284 -0.00294117 0
1.00317 -0.00307631 0
1.00354 -0.00321225 0
1.00392 -0.00334512 0
1.00433 -0.00347069 0
1.00477 -0.00358473 0
1.00524 -0.00368056 0
1.00573 -0.00375151 0
1.00625 -0.00379562 0
1.00677 -0.00381093 0
1.00731 -0.00378413 0
1.00787 -0.00370192 0
1.00842 -0.00356432 0
1.00895 -0.00337138 0
1.00946 -0.00312753 0
1.00993 -0.0028372 0
1.01037 -0.00248799 0
1.01076 -0.00206749 0
1.01109 -0.00159288 0
1.01132 -0.00108134 0
1.01146 -0.000552053 0
1.01149 -2.42281e-05 0
1.01143 0.000499299 0
1.01129 0.00101569 0
1.01107 0.0015129 0
1.01076 0.00197891 0
1.01039 0.00239793 0
1.00997 0.00275418 0
1.00949 0.00304969 0
1.00899 0.0032865 0
1.00846 0.00346681 0
1.00792 0.00359283 0
1.00738 0.00366504 0
1.00685 0.00368392 0
1.00633 0.00365857 0
1.00583 0.00359811 0
1.00534 0.00350769 0
1.00489 0.00339248 0
1.00447 0.00325774 0
1.00407 0.00310875 0
1.00371 0.00294995 0
1.00337 0.00278581 0
1.00306 0.00261875 0
1.00277 0.00245118 0
1.00251 0.00228551 0
1.00227 0.00212411 0
1.00206 0.00196772 0
1.00186 0.0018171 0
1.00169 0.00167292 0
1.00153 0.0015359 0
1.00138 0.00140604 0
1.00125 0.00128334 0
1.00113 0.00116764 0
1.00103 0.00105881 0
1.00093 0.000956524 0
1.00085 0.000860443 0
1.00078 0.00077014 0
1.00071 0.000685184 0
1.00065 0.00060513 0
1.0006 0.000529533 0
1.00056 0.000457898 0
1.00052 0.000389729 0
1.00049 0.000324588 0
1.00046 0.000262038 0
1.00044 0.000201533 0
1.00043 0.000142528 0
1.00042 8.48039e-05 0
1.00041 2.81427e-05 0
1 0 0
1.00007 -0.00174348 0
1.00023 -0.00227766 0
1.00041 -0.00223228 0
1.00059 -0.00223707 0
1.00076 -0.00228753 0
1.00095 -0.00237915 0
1.00115 -0.00248556 0
1.00137 -0.00258037 0
1.00159 -0.00268384 0
1.00184 -0.00281619 0
1.0021 -0.00296279 0
1.00238 -0.00310901 0
1.00269 -0.00326083 0
1.00302 -0.00342424 0
1.00338 -0.00358993 0
1.00378 -0.00374855 0
1.0042 -0.00389994 0
1.00465 -0.00404395 0
1.00514 -0.0041717 0
1.00566 -0.00427432 0
1.00621 -0.00434187 0
1.00678 -0.00436438 0
1.00737 -0.00434318 0
1.00796 -0.00427962 0
1.00857 -0.00415446 0
1.00919 -0.00394848 0
1.00979 -0.00366698 0
1.01034 -0.00331523 0
1.01082 -0.002901 0
1.01122 -0.00243204 0
1.01155 -0.00190417 0
1.01183 -0.0013132 0
1.01202 -0.000681214 0
1.0121 -3.03364e-05 0
1.01207 0.000616222 0
1.0119 0.00123525 0
1.01162 0.00181697 0
1.01127 0.00235161 0
1.01084 0.00282982 0
1.01036 0.00324222 0
1.00981 0.00358423 0
1.00923 0.0038513 0
1.00862 0.00404471 0
1.00801 0.00416575 0
1.00742 0.00422451 0
1.00683 0.00423108 0
1.00627 0.00419004 0
1.00573 0.00410602 0
1.00523 0.00398683 0
1.00475 0.00384033 0
1.00431 0.00367378 0
1.0039 0.00349442 0
1.00353 0.00330588 0
1.00319 0.00311177 0
1.00288 0.00291593 0
1.00259 0.00272218 0
1.00234 0.00253222 0
1.0021 0.00234774 0
1.00189 0.00216986 0
1.00171 0.0019997 0
1.00154 0.00183771 0
1.00138 0.00168432 0
1.00125 0.00153947 0
1.00113 0.00140308 0
1.00102 0.00127491 0
1.00092 0.00115472 0
1.00083 0.00104207 0
1.00075 0.000936478 0
1.00068 0.000837453 0
1.00062 0.000744498 0
1.00057 0.000657072 0
1.00052 0.000574638 0
1.00049 0.000496636 0
1.00045 0.000422509 0
1.00042 0.000351758 0
1.0004 0.000283883 0
1.00038 0.00021828 0
1.00037 0.000154343 0
1.00036 9.18237e-05 0
1.00035 3.0471e-05 0
1 0 0
1.00007 -0.00187164 0
1.0002 -0.0024462 0
1.00037 -0.00239918 0
1.00053 -0.00240612 0
1.00069 -0.00246303 0
1.00087 -0.00256591 0
1.00105 -0.00268557 0
1.00125 -0.00279283 0
1.00146 -0.0029109 0
1.00169 -0.00306302 0
1.00194 -0.00323192 0
1.00222 -0.00340036 0
1.00252 -0.00357676 0
1.00285 -0.0037695 0
1.0032 -0.00396727 0
1.0036 -0.00415873 0
1.00404 -0.00434355 0
1.0045 -0.00452142 0
1.00501 -0.00468464 0
1.00555 -0.00482551 0
1.00614 -0.00492632 0
1.00676 -0.00496935 0
1.00741 -0.00496356 0
1.00806 -0.00491791 0
1.00874 -0.00480417 0
1.00943 -0.00459413 0
1.01012 -0.00428474 0
1.01076 -0.00387297 0
1.01132 -0.00338365 0
1.01178 -0.00284161 0
1.01215 -0.00223722 0
1.01246 -0.00156084 0
1.01268 -0.000825799 0
1.01279 -4.53995e-05 0
1.01276 0.000736715 0
1.01257 0.0014769 0
1.01225 0.00216207 0
1.01184 0.00277912 0
1.01134 0.00332587 0
1.01078 0.00380013 0
1.01015 0.00419073 0
1.00948 0.00448652 0
1.00879 0.00469007 0
1.00811 0.00480397 0
1.00744 0.00484505 0
1.0068 0.00483017 0
1.00619 0.00476281 0
1.00561 0.00464647 0
1.00508 0.00449144 0
1.00458 0.004308 0
1.00412 0.0041045 0
1.0037 0.00388927 0
1.00332 0.00366605 0
1.00298 0.0034386 0
1.00267 0.00321149 0
1.00239 0.00298932 0
1.00214 0.00277324 0
1.00191 0.00256438 0
1.00171 0.00236416 0
1.00153 0.002174 0
1.00137 0.00199396 0
1.00123 0.00182411 0
1.0011 0.00166433 0
1.00099 0.0015145 0
1.00089 0.00137423 0
1.0008 0.00124309 0
1.00072 0.00112052 0
1.00065 0.00100592 0
1.00058 0.000898704 0
1.00053 0.000798286 0