<?xml version="1.0"?>
<VTKFile type="UnstructuredGrid">
  <UnstructuredGrid>
  <Piece NumberOfPoints="961"  NumberOfCells="225">
    <Points>
      <DataArray type="Float64" NumberOfComponents="3" format="ascii">
0 0 0
0.0333333 0 0
0.0666667 0 0
0.1 0 0
0.133333 0 0
0.166667 0 0
0.2 0 0
0.233333 0 0
0.266667 0 0
0.3 0 0
0.333333 0 0
0.366667 0 0
0.4 0 0
0.433333 0 0
0.466667 0 0
0.5 0 0
0.533333 0 0
0.566667 0 0
0.6 0 0
0.633333 0 0
0.666667 0 0
0.7 0 0
0.733333 0 0
0.766667 0 0
0.8 0 0
0.833333 0 0
0.866667 0 0
0.9 0 0
0.933333 0 0
0.966667 0 0
1 0 0
0 0.0333333 0
0.0333333 0.0333333 0
0.0666667 0.0333333 0
0.1 0.0333333 0
0.133333 0.0333333 0
0.166667 0.0333333 0
0.2 0.0333333 0
0.233333 0.0333333 0
0.266667 0.0333333 0
0.3 0.0333333 0
0.333333 0.0333333 0
0.366667 0.0333333 0
0.4 0.0333333 0
0.433333 0.0333333 0
0.466667 0.0333333 0
0.5 0.0333333 0
0.533333 0.0333333 0
0.566667 0.0333333 0
0.6 0.0333333 0
0.633333 0.0333333 0
0.666667 0.0333333 0
0.7 0.0333333 0
0.733333 0.0333333 0
0.766667 0.0333333 0
0.8 0.0333333 0
0.833333 0.0333333 0
0.866667 0.0333333 0
0.9 0.0333333 0
0.933333 0.0333333 0
0.966667 0.0333333 0
1 0.0333333 0
0 0.0666667 0
0.0333333 0.0666667 0
0.0666667 0.0666667 0
0.1 0.0666667 0
0.133333 0.0666667 0
0.166667 0.0666667 0
0.2 0.0666667 0
0.233333 0.0666667 0
0.266667 0.0666667 0
0.3 0.0666667 0
0.333333 0.0666667 0
0.366667 0.0666667 0
0.4 0.0666667 0
0.433333 0.0666667 0
0.466667 0.0666667 0
0.5 0.0666667 0
0.533333 0.0666667 0
0.566667 0.0666667 0
0.6 0.0666667 0
0.633333 0.0666667 0
0.666667 0.0666667 0
0.7 0.0666667 0
0.733333 0.0666667 0
0.766667 0.0666667 0
0.8 0.0666667 0
0.833333 0.0666667 0
0.866667 0.0666667 0
0.9 0.0666667 0
0.933333 0.0666667 0
0.966667 0.0666667 0
1 0.0666667 0
0 0.1 0
0.0333333 0.1 0
0.0666667 0.1 0
0.1 0.1 0
0.133333 0.1 0
0.166667 0.1 0
0.2 0.1 0
0.233333 0.1 0
0.266667 0.1 0
0.3 0.1 0
0.333333 0.1 0
0.366667 0.1 0
0.4 0.1 0
0.433333 0.1 0
0.466667 0.1 0
0.5 0.1 0
0.533333 0.1 0
0.566667 0.1 0
0.6 0.1 0
0.633333 0.1 0
0.666667 0.1 0
0.7 0.1 0
0.733333 0.1 0
0.766667 0.1 0
0.8 0.1 0
0.833333 0.1 0
0.866667 0.1 0
0.9 0.1 0
0.933333 0.1 0
0.966667 0.1 0
1 0.1 0
0 0.133333 0
0.0333333 0.133333 0
0.0666667 0.133333 0
0.1 0.133333 0
0.133333 0.133333 0
0.166667 0.133333 0
0.2 0.133333 0
0.233333 0.133333 0
0.266667 0.133333 0
0.3 0.133333 0
0.333333 0.133333 0
0.366667 0.133333 0
0.4 0.133333 0
0.433333 0.133333 0
0.466667 0.133333 0
0.5 0.133333 0
0.533333 0.133333 0
0.566667 0.133333 0
0.6 0.133333 0
0.633333 0.133333 0
0.666667 0.133333 0
0.7 0.133333 0
0.733333 0.133333 0
0.766667 0.133333 0
0.8 0.133333 0
0.833333 0.133333 0
0.866667 0.133333 0
0.9 0.133333 0
0.933333 0.133333 0
0.966667 0.133333 0
1 0.133333 0
0 0.166667 0
0.0333333 0.166667 0
0.0666667 0.166667 0
0.1 0.166667 0
0.133333 0.166667 0
0.166667 0.166667 0
0.2 0.166667 0
0.233333 0.166667 0
0.266667 0.166667 0
0.3 0.166667 0
0.333333 0.166667 0
0.366667 0.166667 0
0.4 0.166667 0
0.433333 0.166667 0
0.466667 0.166667 0
0.5 0.166667 0
0.533333 0.166667 0
0.566667 0.166667 0
0.6 0.166667 0
0.633333 0.166667 0
0.666667 0.166667 0
0.7 0.166667 0
0.733333 0.166667 0
0.766667 0.166667 0
0.8 0.166667 0
0.833333 0.166667 0
0.866667 0.166667 0
0.9 0.166667 0
0.933333 0.166667 0
0.966667 0.166667 0
1 0.166667 0
0 0.2 0
0.0333333 0.2 0
0.0666667 0.2 0
0.1 0.2 0
0.133333 0.2 0
0.166667 0.2 0
0.2 0.2 0
0.233333 0.2 0
0.266667 0.2 0
0.3 0.2 0
0.333333 0.2 0
0.366667 0.2 0
0.4 0.2 0
0.433333 0.2 0
0.466667 0.2 0
0.5 0.2 0
0.533333 0.2 0
0.566667 0.2 0
0.6 0.2 0
0.633333 0.2 0
0.666667 0.2 0
0.7 0.2 0
0.733333 0.2 0
0.766667 0.2 0
0.8 0.2 0
0.833333 0.2 0
0.866667 0.2 0
0.9 0.2 0
0.933333 0.2 0
0.966667 0.2 0
1 0.2 0
0 0.233333 0
0.0333333 0.233333 0
0.0666667 0.233333 0
0.1 0.233333 0
0.133333 0.233333 0
0.166667 0.233333 0
0.2 0.233333 0
0.233333 0.233333 0
0.266667 0.233333 0
0.3 0.233333 0
0.333333 0.233333 0
0.366667 0.233333 0
0.4 0.233333 0
0.433333 0.233333 0
0.466667 0.233333 0
0.5 0.233333 0
0.533333 0.233333 0
0.566667 0.233333 0
0.6 0.233333 0
0.633333 0.233333 0
0.666667 0.233333 0
0.7 0.233333 0
0.733333 0.233333 0
0.766667 0.233333 0
0.8 0.233333 0
0.833333 0.233333 0
0.866667 0.233333 0
0.9 0.233333 0
0.933333 0.233333 0
0.966667 0.233333 0
1 0.233333 0
0 0.266667 0
0.0333333 0.266667 0
0.0666667 0.266667 0
0.1 0.266667 0
0.133333 0.266667 0
0.166667 0.266667 0
0.2 0.266667 0
0.233333 0.266667 0
0.266667 0.266667 0
0.3 0.266667 0
0.333333 0.266667 0
0.366667 0.266667 0
0.4 0.266667 0
0.433333 0.266667 0
0.466667 0.266667 0
0.5 0.266667 0
0.533333 0.266667 0
0.566667 0.266667 0
0.6 0.266667 0
0.633333 0.266667 0
0.666667 0.266667 0
0.7 0.266667 0
0.733333 0.266667 0
0.766667 0.266667 0
0.8 0.266667 0
0.833333 0.266667 0
0.866667 0.266667 0
0.9 0.266667 0
0.933333 0.266667 0
0.966667 0.266667 0
1 0.266667 0
0 0.3 0
0.0333333 0.3 0
0.0666667 0.3 0
0.1 0.3 0
0.133333 0.3 0
0.166667 0.3 0
0.2 0.3 0
0.233333 0.3 0
0.266667 0.3 0
0.3 0.3 0
0.333333 0.3 0
0.366667 0.3 0
0.4 0.3 0
0.433333 0.3 0
0.466667 0.3 0
0.5 0.3 0
0.533333 0.3 0
0.566667 0.3 0
0.6 0.3 0
0.633333 0.3 0
0.666667 0.3 0
0.7 0.3 0
0.733333 0.3 0
0.766667 0.3 0
0.8 0.3 0
0.833333 0.3 0
0.866667 0.3 0
0.9 0.3 0
0.933333 0.3 0
0.966667 0.3 0
1 0.3 0
0 0.333333 0
0.0333333 0.333333 0
0.0666667 0.333333 0
0.1 0.333333 0
0.133333 0.333333 0
0.166667 0.333333 0
0.2 0.333333 0
0.233333 0.333333 0
0.266667 0.333333 0
0.3 0.333333 0
0.333333 0.333333 0
0.366667 0.333333 0
0.4 0.333333 0
0.433333 0.333333 0
0.466667 0.333333 0
0.5 0.333333 0
0.533333 0.333333 0
0.566667 0.333333 0
0.6 0.333333 0
0.633333 0.333333 0
0.666667 0.333333 0
0.7 0.333333 0
0.733333 0.333333 0
0.766667 0.333333 0
0.8 0.333333 0
0.833333 0.333333 0
0.866667 0.333333 0
0.9 0.333333 0
0.933333 0.333333 0
0.966667 0.333333 0
1 0.333333 0
0 0.366667 0
0.0333333 0.366667 0
0.0666667 0.366667 0
0.1 0.366667 0
0.133333 0.366667 0
0.166667 0.366667 0
0.2 0.366667 0
0.233333 0.366667 0
0.266667 0.366667 0
0.3 0.366667 0
0.333333 0.366667 0
0.366667 0.366667 0
0.4 0.366667 0
0.433333 0.366667 0
0.466667 0.366667 0
0.5 0.366667 0
0.533333 0.366667 0
0.566667 0.366667 0
0.6 0.366667 0
0.633333 0.366667 0
0.666667 0.366667 0
0.7 0.366667 0
0.733333 0.366667 0
0.766667 0.366667 0
0.8 0.366667 0
0.833333 0.366667 0
0.866667 0.366667 0
0.9 0.366667 0
0.933333 0.366667 0
0.966667 0.366667 0
1 0.366667 0
0 0.4 0
0.0333333 0.4 0
0.0666667 0.4 0
0.1 0.4 0
0.133333 0.4 0
0.166667 0.4 0
0.2 0.4 0
0.233333 0.4 0
0.266667 0.4 0
0.3 0.4 0
0.333333 0.4 0
0.366667 0.4 0
0.4 0.4 0
0.433333 0.4 0
0.466667 0.4 0
0.5 0.4 0
0.533333 0.4 0
0.566667 0.4 0
0.6 0.4 0
0.633333 0.4 0
0.666667 0.4 0
0.7 0.4 0
0.733333 0.4 0
0.766667 0.4 0
0.8 0.4 0
0.833333 0.4 0
0.866667 0.4 0
0.9 0.4 0
0.933333 0.4 0
0.966667 0.4 0
1 0.4 0
0 0.433333 0
0.0333333 0.433333 0
0.0666667 0.433333 0
0.1 0.433333 0
0.133333 0.433333 0
0.166667 0.433333 0
0.2 0.433333 0
0.233333 0.433333 0
0.266667 0.433333 0
0.3 0.433333 0
0.333333 0.433333 0
0.366667 0.433333 0
0.4 0.433333 0
0.433333 0.433333 0
0.466667 0.433333 0
0.5 0.433333 0
0.533333 0.433333 0
0.566667 0.433333 0
0.6 0.433333 0
0.633333 0.433333 0
0.666667 0.433333 0
0.7 0.433333 0
0.733333 0.433333 0
0.766667 0.433333 0
0.8 0.433333 0
0.833333 0.433333 0
0.866667 0.433333 0
0.9 0.433333 0
0.933333 0.433333 0
0.966667 0.433333 0
1 0.433333 0
0 0.466667 0
0.0333333 0.466667 0
0.0666667 0.466667 0
0.1 0.466667 0
0.133333 0.466667 0
0.166667 0.466667 0
0.2 0.466667 0
0.233333 0.466667 0
0.266667 0.466667 0
0.3 0.466667 0
0.333333 0.466667 0
0.366667 0.466667 0
0.4 0.466667 0
0.433333 0.466667 0
0.466667 0.466667 0
0.5 0.466667 0
0.533333 0.466667 0
0.566667 0.466667 0
0.6 0.466667 0
0.633333 0.466667 0
0.666667 0.466667 0
0.7 0.466667 0
0.733333 0.466667 0
0.766667 0.466667 0
0.8 0.466667 0
0.833333 0.466667 0
0.866667 0.466667 0
0.9 0.466667 0
0.933333 0.466667 0
0.966667 0.466667 0
1 0.466667 0
0 0.5 0
0.0333333 0.5 0
0.0666667 0.5 0
0.1 0.5 0
0.133333 0.5 0
0.166667 0.5 0
0.2 0.5 0
0.233333 0.5 0
0.266667 0.5 0
0.3 0.5 0
0.333333 0.5 0
0.366667 0.5 0
0.4 0.5 0
0.433333 0.5 0
0.466667 0.5 0
0.5 0.5 0
0.533333 0.5 0
0.566667 0.5 0
0.6 0.5 0
0.633333 0.5 0
0.666667 0.5 0
0.7 0.5 0
0.733333 0.5 0
0.766667 0.5 0
0.8 0.5 0
0.833333 0.5 0
0.866667 0.5 0
0.9 0.5 0
0.933333 0.5 0
0.966667 0.5 0
1 0.5 0
0 0.533333 0
0.0333333 0.533333 0
0.0666667 0.533333 0
0.1 0.533333 0
0.133333 0.533333 0
0.166667 0.533333 0
0.2 0.533333 0
0.233333 0.533333 0
0.266667 0.533333 0
0.3 0.533333 0
0.333333 0.533333 0
0.366667 0.533333 0
0.4 0.533333 0
0.433333 0.533333 0
0.466667 0.533333 0
0.5 0.533333 0
0.533333 0.533333 0
0.566667 0.533333 0
0.6 0.533333 0
0.633333 0.533333 0
0.666667 0.533333 0
0.7 0.533333 0
0.733333 0.533333 0
0.766667 0.533333 0
0.8 0.533333 0
0.833333 0.533333 0
0.866667 0.533333 0
0.9 0.533333 0
0.933333 0.533333 0
0.966667 0.533333 0
1 0.533333 0
0 0.566667 0
0.0333333 0.566667 0
0.0666667 0.566667 0
0.1 0.566667 0
0.133333 0.566667 0
0.166667 0.566667 0
0.2 0.566667 0
0.233333 0.566667 0
0.266667 0.566667 0
0.3 0.566667 0
0.333333 0.566667 0
0.366667 0.566667 0
0.4 0.566667 0
0.433333 0.566667 0
0.466667 0.566667 0
0.5 0.566667 0
0.533333 0.566667 0
0.566667 0.566667 0
0.6 0.566667 0
0.633333 0.566667 0
0.666667 0.566667 0
0.7 0.566667 0
0.733333 0.566667 0
0.766667 0.566667 0
0.8 0.566667 0
0.833333 0.566667 0
0.866667 0.566667 0
0.9 0.566667 0
0.933333 0.566667 0
0.966667 0.566667 0
1 0.566667 0
0 0.6 0
0.0333333 0.6 0
0.0666667 0.6 0
0.1 0.6 0
0.133333 0.6 0
0.166667 0.6 0
0.2 0.6 0
0.233333 0.6 0
0.266667 0.6 0
0.3 0.6 0
0.333333 0.6 0
0.366667 0.6 0
0.4 0.6 0
0.433333 0.6 0
0.466667 0.6 0
0.5 0.6 0
0.533333 0.6 0
0.566667 0.6 0
0.6 0.6 0
0.633333 0.6 0
0.666667 0.6 0
0.7 0.6 0
0.733333 0.6 0
0.766667 0.6 0
0.8 0.6 0
0.833333 0.6 0
0.866667 0.6 0
0.9 0.6 0
0.933333 0.6 0
0.966667 0.6 0
1 0.6 0
0 0.633333 0
0.0333333 0.633333 0
0.0666667 0.633333 0
0.1 0.633333 0
0.133333 0.633333 0
0.166667 0.633333 0
0.2 0.633333 0
0.233333 0.633333 0
0.266667 0.633333 0
[...]
    <PointData>
      <DataArray type="Float64" NumberOfComponents="3" Name="Velocity" format="ascii">
0 0 0
0 0 0
0 0 0
0 0 0
0 0 0
0 0 0
0 0 0
0 0 0
0 0 0
0 0 0
0 0 0
0 0 0
0 0 0
0 0 0
0 0 0
0 0 0
0 0 0
0 0 0
0 0 0
0 0 0
0 0 0
0 0 0
0 0 0
0 0 0
0 0 0
0 0 0
0 0 0
0 0 0
0 0 0
0 0 0
0 0 0
0 0 0
-0.000494838 0.000447894 0
-0.00150837 0.0010063 0
-0.00318791 0.00155498 0
-0.00568077 0.00197372 0
-0.00864041 0.00222173 0
-0.0117203 0.00225821 0
-0.0147941 0.00216048 0
-0.0177353 0.00200585 0
-0.0204345 0.0017943 0
-0.022782 0.00152581 0
-0.0247387 0.00122187 0
-0.0262655 0.000904001 0
-0.0273357 0.00057296 0
-0.0279223 0.000229515 0
-0.0280179 -0.000119452 0
-0.0276149 -0.000467056 0
-0.0267297 -0.000801704 0
-0.0253787 -0.0011118 0
-0.0236043 -0.00139756 0
-0.0214489 -0.00165919 0
-0.0189664 -0.0018705 0
-0.0162108 -0.0020053 0
-0.0133051 -0.00207698 0
-0.0103723 -0.00209892 0
-0.00750952 -0.00200481 0
-0.00481382 -0.00172832 0
-0.00259132 -0.00131229 0
-0.00114813 -0.000799551 0
-0.000334326 -0.000319118 0
0 0 0
0 0 0
-0.000756947 0.00116485 0
-0.00319047 0.00287665 0
-0.00698728 0.00457559 0
-0.0118341 0.00570181 0
-0.0173055 0.00631971 0
-0.0229761 0.0064937 0
-0.0285886 0.00632198 0
-0.0338855 0.00590277 0
-0.0387196 0.00528917 0
-0.0429437 0.00453425 0
-0.0464793 0.00367437 0
-0.0492475 0.00274589 0
-0.0511931 0.00176153 0
-0.0522609 0.000733985 0
-0.0524357 -0.000311833 0
-0.0517023 -0.00135101 0
-0.0500868 -0.00235483 0
-0.0476152 -0.00329456 0
-0.0443706 -0.00414946 0
-0.0404363 -0.00489881 0
-0.0359275 -0.00550981 0
-0.0309596 -0.00594968 0
-0.0256975 -0.00617814 0
-0.0203058 -0.0061549 0
-0.0150391 -0.00582448 0
-0.010152 -0.00513139 0
-0.00594318 -0.00402019 0
-0.00271164 -0.00243546 0
-0.000662262 -0.000915846 0
0 0 0
0 0 0
-0.00135061 0.00307409 0
-0.00529215 0.00662123 0
-0.0110796 0.00982649 0
-0.0179678 0.011875 0
-0.0255251 0.0129445 0
-0.0333195 0.0132129 0
-0.0410003 0.012834 0
-0.0482166 0.0119613 0
-0.0548016 0.0107109 0
-0.0605888 0.00919837 0
-0.065454 0.00747554 0
-0.0692734 0.00559409 0
-0.0719668 0.00358968 0
-0.0734542 0.00149799 0
-0.073712 -0.00063111 0
-0.0727164 -0.00274777 0
-0.0705043 -0.00479472 0
-0.0671123 -0.00671469 0
-0.0626554 -0.00845274 0
-0.0572486 -0.00995388 0
-0.0510691 -0.0111754 0
-0.0442942 -0.0120745 0
-0.0371094 -0.0125592 0
-0.0297006 -0.0125372 0
-0.0224234 -0.0119325 0
-0.0156339 -0.010669 0
-0.00960923 -0.00862111 0
-0.00462655 -0.00566323 0
-0.00123908 -0.00254098 0
0 0 0
0 0 0
-0.0028401 0.00709886 0
-0.00805927 0.0132502 0
-0.0151463 0.0180724 0
-0.0235898 0.0211839 0
-0.0328289 0.0227465 0
-0.0423024 0.0229223 0
-0.0516458 0.0220459 0
-0.0604947 0.0204521 0
-0.068627 0.0182857 0
-0.0758206 0.0156912 0
-0.0818954 0.0127435 0
-0.086671 0.009517 0
-0.0900514 0.00608137 0
-0.0919406 0.00250612 0
-0.0923052 -0.00113125 0
-0.0911117 -0.00475322 0
-0.0884157 -0.0082567 0
-0.084273 -0.0115386 0
-0.0788146 -0.0145044 0
-0.0721719 -0.0170595 0
-0.064577 -0.0191248 0
-0.0562621 -0.0206213 0
-0.0474733 -0.0214758 0
-0.0384567 -0.021615 0
-0.0294972 -0.0208023 0
-0.0208792 -0.0188009 0
-0.0131431 -0.0156125 0
-0.0068289 -0.0112384 0
-0.00232006 -0.00594532 0
0 0 0
0 0 0
-0.00398597 0.0116355 0
-0.0105353 0.0206395 0
-0.0190802 0.027152 0
-0.029053 0.0313133 0
-0.0398132 0.0333439 0
-0.0507206 0.033464 0
-0.0614502 0.0321462 0
-0.0716773 0.029863 0
-0.0811215 0.0267707 0
-0.0895019 0.0230259 0
-0.0966059 0.0187433 0
-0.102221 0.0140373 0
-0.106227 0.00900972 0
-0.108504 0.00376205 0
-0.109 -0.0015872 0
-0.107663 -0.00691955 0
-0.10456 -0.0120773 0
-0.0997572 -0.0169029 0
-0.0934114 -0.021257 0
-0.0856793 -0.0250005 0
-0.0768347 -0.0280036 0
-0.0671511 -0.0301362 0
-0.0569511 -0.0313622 0
-0.0465571 -0.0316457 0
-0.0361776 -0.0306368 0
-0.0260209 -0.0279856 0
-0.0167425 -0.023674 0
-0.00899814 -0.0176836 0
-0.0032599 -0.00984781 0
0 0 0
0 0 0
-0.0035488 0.0150805 0
-0.0117636 0.026665 0
-0.0227741 0.0349041 0
-0.03471 0.0399482 0
-0.0470742 0.0423546 0
-0.0593697 0.0426805 0
-0.0713383 0.0413236 0
-0.082722 0.0386819 0
-0.0932109 0.0349232 0
-0.102495 0.0302156 0
-0.110388 0.0247401 0
-0.116703 0.0186778 0
-0.121272 0.0121478 0
-0.123927 0.00526947 0
-0.124581 -0.0017739 0
-0.123147 -0.00879895 0
-0.119677 -0.0155931 0
-0.114225 -0.0219439 0
-0.107008 -0.0276629 0
-0.0982438 -0.0325622 0
-0.0882257 -0.0364576 0
-0.0772489 -0.0391654 0
-0.0657047 -0.0406526 0
-0.0539845 -0.0408865 0
-0.0423821 -0.0396388 0
-0.0311919 -0.0366815 0
-0.0206053 -0.0314855 0
-0.0108138 -0.0235216 0
-0.00341333 -0.0129674 0
0 0 0
0 0 0
-0.00320145 0.0211844 0
-0.0125286 0.0363808 0
-0.0252324 0.0464844 0
-0.0385636 0.0523905 0
-0.0522405 0.0550295 0
-0.0659812 0.0553317 0
-0.0794146 0.0536268 0
-0.0921696 0.0502441 0
-0.103927 0.0454183 0
-0.114367 0.0393838 0
-0.123293 0.0323534 0
-0.130509 0.0245394 0
-0.135801 0.016081 0
-0.138956 0.00711711 0
-0.139858 -0.0021045 0
-0.13839 -0.0113361 0
-0.134593 -0.0202788 0
-0.12851 -0.0286337 0
-0.120393 -0.0361477 0
-0.110495 -0.0425677 0
-0.0991487 -0.0476631 0
-0.0866838 -0.0512038 0
-0.0735535 -0.0530989 0
-0.0602104 -0.0532576 0
-0.0471799 -0.0516376 0
-0.0349872 -0.0481968 0
-0.0233675 -0.0420941 0
-0.012056 -0.0324887 0
-0.0034633 -0.0186882 0
0 0 0
0 0 0
-0.00461682 0.0336982 0
-0.0136146 0.0548408 0
-0.0254592 0.0670485 0
-0.0386165 0.073942 0
-0.0529408 0.0766192 0
-0.0682867 0.0761779 0
-0.0837835 0.0731044 0
-0.098561 0.067885 0
-0.1123 0.0609312 0
-0.124683 0.0526545 0
-0.135371 0.0432026 0
-0.14403 0.0327235 0
-0.150428 0.0213946 0
-0.154335 0.00939369 0
-0.155638 -0.00299213 0
-0.154221 -0.0154756 0
-0.150139 -0.027609 0
-0.143446 -0.0389445 0
-0.134352 -0.0491368 0
-0.123065 -0.0578404 0
-0.110002 -0.0647965 0
-0.0955839 -0.0697463 0
-0.0803163 -0.0724528 0
-0.0647068 -0.0726791 0
-0.0496402 -0.0704622 0
-0.0360016 -0.0658395 0
-0.0236651 -0.058547 0
-0.012505 -0.048321 0
-0.00409278 -0.0303944 0
0 0 0
0 0 0
-0.00533186 0.0432681 0
-0.0132745 0.0693224 0
-0.0237531 0.0837648 0
-0.0366927 0.0921969 0
-0.0516729 0.0956002 0
-0.0682732 0.0949561 0
-0.085333 0.0909899 0
-0.101691 0.084427 0
-0.117007 0.075792 0
-0.130939 0.0656099 0
-0.143037 0.0539902 0
-0.152849 0.0410424 0
-0.160148 0.0270081 0
-0.164704 0.0121292 0
-0.16641 -0.00326202 0
-0.165158 -0.0188331 0
-0.161 -0.0340159 0
-0.153991 -0.0482422 0
-0.144284 -0.0610599 0
-0.132034 -0.0720172 0
-0.117713 -0.0807998 0
-0.10179 -0.0870938 0
-0.0848242 -0.0905253 0
-0.0673734 -0.0907208 0
-0.0505459 -0.0876794 0
-0.03545 -0.0814002 0
-0.0224671 -0.0723811 0
-0.0119782 -0.0611198 0
-0.00436282 -0.0396486 0
0 0 0
0 0 0
-0.00288353 0.0405405 0
-0.00976139 0.0671034 0
-0.0204127 0.0838019 0
-0.0346164 0.0947492 0
-0.0509344 0.100449 0
-0.0679281 0.101403 0
-0.0849508 0.0985167 0
-0.101355 0.0926921 0
-0.116723 0.0843304 0
-0.130633 0.0738325 0
-0.142703 0.0614185 0
-0.152552 0.0473086 0
-0.159958 0.0318409 0
-0.164702 0.0153536 0
-0.166662 -0.00173938 0
-0.165718 -0.0190243 0
-0.161865 -0.0359317 0
-0.1551 -0.0518924 0
-0.145586 -0.0663465 0
-0.133488 -0.0787346 0
-0.119207 -0.0886152 0
-0.103144 -0.0955471 0
-0.0859078 -0.0991272 0
-0.0681101 -0.0989525 0
-0.0506801 -0.0948557 0
-0.0345476 -0.0866694 0
-0.0207421 -0.0751332 0
-0.0102931 -0.0609863 0
-0.00333451 -0.0380136 0
0 0 0
0 0 0
-0.0010687 0.0341157 0
-0.0076204 0.0598732 0
-0.0188849 0.0788059 0
-0.0340919 0.0924477 0
-0.0511099 0.100833 0
-0.0678072 0.103995 0
-0.0840859 0.102874 0
-0.0998479 0.098409 0
-0.114594 0.0908632 0
-0.127826 0.0805006 0
-0.139274 0.0677109 0
-0.148668 0.0528837 0
-0.155804 0.0364483 0
-0.160478 0.018834 0
-0.162563 0.000536692 0
-0.161931 -0.0179475 0
-0.158538 -0.0360879 0
-0.152339 -0.0533541 0
-0.143494 -0.0691118 0
-0.132164 -0.0827269 0
-0.118637 -0.0935962 0
-0.103201 -0.101117 0
-0.0864805 -0.104861 0
-0.0690963 -0.104402 0
-0.0517202 -0.0993843 0
-0.0350236 -0.0894535 0
-0.020502 -0.0752288 0
-0.00965088 -0.05733 0
-0.00273024 -0.0331295 0
0 0 0
0 0 0
-0.00368426 0.0325943 0
-0.0113968 0.0593215 0
-0.0226168 0.0804233 0
-0.0368234 0.0961413 0
-0.0525841 0.106421 0
-0.0684663 0.111207 0
-0.0841871 0.111252 0
-0.0994633 0.107306 0
-0.11377 0.0997072 0
-0.126583 0.0887926 0
-0.137652 0.0750905 0
-0.146728 0.0591292 0
-0.153631 0.0413857 0
-0.158181 0.0223372 0
-0.160279 0.00252712 0
-0.159826 -0.017501 0
-0.156824 -0.0372159 0
-0.151275 -0.0560862 0
-0.143244 -0.0734708 0
-0.1328 -0.0887284 0
-0.120155 -0.101096 0
-0.105522 -0.109812 0
-0.0894554 -0.114328 0
-0.0725111 -0.114096 0
-0.0553434 -0.108658 0
-0.0386073 -0.0975588 0
-0.0237585 -0.0810938 0
-0.0122527 -0.0595603 0
-0.00427239 -0.0326364 0
0 0 0
0 0 0
-0.00686347 0.0353488 0
-0.0160583 0.0649577 0
-0.0273703 0.0886479 0
-0.0405851 0.106241 0
-0.0551839 0.117836 0
-0.0706476 0.123534 0
-0.086303 0.123935 0
-0.101477 0.11964 0
-0.115654 0.111165 0
-0.128317 0.0990251 0
-0.139227 0.08385 0
-0.148144 0.0662687 0
-0.154919 0.0467853 0
-0.159406 0.0259038 0
-0.16154 0.00417786 0
-0.161259 -0.0178391 0
-0.158613 -0.0395918 0
-0.153651 -0.060525 0
-0.146332 -0.0799917 0
-0.136612 -0.0973448 0
-0.124631 -0.111693 0
-0.110526 -0.122147 0
-0.094767 -0.127978 0
-0.0778254 -0.128459 0
-0.0604476 -0.123007 0
-0.0433804 -0.111038 0
-0.0279287 -0.0925048 0
-0.0153975 -0.0673611 0
-0.00601267 -0.0362964 0
0 0 0
0 0 0
-0.00673963 0.0417518 0
-0.0165727 0.0762911 0
-0.0289072 0.103474 0
-0.0431511 0.123156 0
-0.058736 0.135699 0
-0.075093 0.141467 0
-0.0914824 0.141207 0
-0.107164 0.135667 0
-0.121648 0.125538 0
-0.134442 0.111515 0
-0.145388 0.094282 0
-0.154327 0.0745258 0
-0.16115 0.0527789 0
-0.165748 0.0295742 0
-0.168075 0.00543487 0
-0.168086 -0.0191159 0
-0.165794 -0.0434918 0
-0.161213 -0.0671067 0
-0.154251 -0.0892427 0
-0.144816 -0.109182 0
-0.132936 -0.125965 0
-0.118636 -0.138633 0
-0.10235 -0.146259 0
-0.0845103 -0.147917 0
-0.0659305 -0.14276 0
-0.0474243 -0.129943 0
-0.0304297 -0.109238 0
-0.0163842 -0.080416 0
-0.00600275 -0.0438716 0
0 0 0
0 0 0
-0.00552154 0.0494168 0
-0.0156992 0.0896431 0
-0.0293433 0.120663 0
-0.0452642 0.142462 0
-0.0624809 0.155732 0
-0.0800121 0.161166 0
-0.0971751 0.159784 0
-0.113287 0.152607 0
-0.127932 0.140512 0
-0.140693 0.124376 0
-0.151509 0.104922 0
-0.160319 0.0828757 0
-0.167073 0.0587907 0
-0.171724 0.0332224 0
-0.174239 0.00664836 0
-0.174585 -0.0204538 0
-0.172712 -0.0474891 0
-0.168568 -0.0738629 0
-0.162019 -0.0987856 0
-0.152934 -0.121468 0
-0.141223 -0.140902 0
-0.126801 -0.156081 0
-0.110032 -0.165842 0
-0.0912831 -0.169021 0
-0.0714122 -0.164446 0
-0.0512786 -0.150942 0
-0.0325385 -0.128066 0
-0.0168486 -0.095374 0
-0.00555395 -0.0527308 0
0 0 0
0 0 0
-0.00541804 0.0559575 0
-0.0161971 0.101335 0
-0.0307944 0.135979 0
-0.0476672 0.159735 0
-0.0656592 0.173654 0
-0.0836143 0.178787 0
-0.100831 0.176381 0
-0.116607 0.167683 0
-0.130684 0.153771 0
-0.142803 0.135723 0
-0.152963 0.114307 0
-0.161161 0.0902939 0
-0.167443 0.064245 0
-0.171854 0.0367226 0
-0.174387 0.0081685 0
-0.175035 -0.0209753 0
-0.17371 -0.0501571 0
-0.170322 -0.0788252 0
-0.164654 -0.106183 0
-0.156485 -0.131433 0
-0.145646 -0.153499 0
-0.131967 -0.171304 0
-0.115641 -0.183397 0
-0.096861 -0.188328 0
-0.0765132 -0.184596 0
-0.0554827 -0.170702 0
-0.0355326 -0.145759 0
-0.0184263 -0.108884 0
-0.00597758 -0.0602425 0
0 0 0
0 0 0
-0.0058497 0.0627183 0
-0.017364 0.113156 0
-0.0327401 0.151166 0
-0.0501754 0.176605 0
-0.0683899 0.190885 0
-0.0861036 0.195417 0
-0.102653 0.191741 0
-0.117375 0.181397 0
-0.130183 0.16564 0
-0.140992 0.145727 0
-0.149889 0.122487 0
-0.156965 0.0967488 0
-0.162365 0.0690553 0
-0.166236 0.0399484 0
-0.16861 0.00982449 0
-0.16952 -0.0209202 0
-0.168853 -0.0518135 0
-0.166496 -0.0823833 0
-0.162141 -0.111883 0
-0.155477 -0.139567 0
-0.146222 -0.164277 0
-0.134091 -0.184855 0
-0.119066 -0.199581 0
-0.101129 -0.206732 0
-0.0810788 -0.204374 0
-0.0597151 -0.190571 0
-0.0389057 -0.163893 0
-0.0205182 -0.122911 0
-0.00680039 -0.0681167 0
0 0 0
0 0 0
-0.00623712 0.071044 0
-0.0184972 0.126893 0
-0.0346598 0.167971 0
-0.0526043 0.194704 0
-0.070792 0.208844 0
-0.0876843 0.212142 0
-0.102846 0.206607 0
-0.115842 0.19425 0
-0.126708 0.176443 0
-0.135478 0.15456 0
-0.14243 0.129511 0
-0.147841 0.102209 0
-0.151943 0.0731352 0
-0.154969 0.0427736 0
-0.157002 0.0114455 0
-0.158126 -0.0205279 0
-0.158207 -0.0527757 0
-0.15711 -0.0849271 0
-0.154469 -0.116337 0
-0.149917 -0.146361 0
-0.142966 -0.173759 0
-0.133129 -0.197288 0
-0.1202 -0.215046 0
-0.103972 -0.225128 0
-0.0849544 -0.224943 0
-0.0636545 -0.211898 0
-0.0421516 -0.184041 0
-0.0225248 -0.13942 0
-0.00754914 -0.0780635 0
0 0 0
0 0 0
-0.00665581 0.080333 0
-0.0197978 0.141811 0
-0.036725 0.185621 0
-0.0547365 0.212948 0
-0.0722002 0.226143 0
-0.0874841 0.227555 0
-0.100394 0.219663 0
-0.110734 0.204951 0
-0.11874 0.184937 0
-0.124649 0.161143 0
-0.12894 0.134513 0
-0.132093 0.105989 0
-0.134428 0.0759768 0
-0.136268 0.0448781 0
-0.137748 0.0129103 0
-0.139004 -0.0197094 0
-0.139898 -0.0527371 0
-0.140288 -0.0859283 0
-0.139764 -0.118772 0
-0.137916 -0.150758 0
-0.134051 -0.180643 0
-0.127473 -0.207187 0
-0.117694 -0.228299 0
-0.104221 -0.241888 0
-0.0872261 -0.244685 0
-0.066878 -0.233423 0
-0.0452877 -0.205319 0
-0.0245656 -0.15759 0
-0.00828022 -0.0894217 0
0 0 0
0 0 0
-0.00718127 0.0899842 0
-0.0214665 0.157176 0
-0.0391072 0.203344 0
-0.0563546 0.230255 0
-0.0719491 0.241395 0
-0.0846308 0.240249 0
-0.0942797 0.229594 0
-0.100776 0.212207 0
-0.104765 0.189878 0
-0.106892 0.164397 0
-0.107773 0.136621 0
-0.108022 0.107406 0
-0.108071 0.0770724 0
-0.108349 0.0459418 0
-0.109035 0.0140978 0
-0.110308 -0.0183756 0
-0.112053 -0.0513904 0
-0.114153 -0.0848586 0
-0.11615 -0.118415 0
-0.117586 -0.151696 0
-0.117646 -0.183627 0
-0.115515 -0.213135 0
-0.1102 -0.237845 0
-0.100707 -0.255382 0
-0.08698 -0.261983 0
-0.0689629 -0.253884 0
-0.0483312 -0.226838 0
-0.0267603 -0.176598 0
-0.00905002 -0.10153 0
0 0 0
0 0 0
-0.0080654 0.100651 0
-0.023171 0.173102 0
-0.0407967 0.220446 0
-0.0564222 0.245776 0
-0.0690599 0.253772 0
-0.0777223 0.249114 0
-0.0826182 0.235049 0
-0.0839566 0.214825 0
-0.0828086 0.190362 0
-0.0802453 0.163583 0
-0.0769917 0.135209 0
-0.0737727 0.105963 0
-0.0711045 0.0760539 0
-0.0695035 0.0456892 0
-0.0691794 0.0148103 0
-0.0703421 -0.0166416 0
-0.0729186 -0.0487442 0
-0.0768361 -0.0815753 0
-0.0816222 -0.114951 0
-0.0868047 -0.148689 0
-0.091507 -0.18196 0
-0.0948531 -0.213936 0
-0.0953614 -0.242167 0
-0.0915505 -0.264198 0
-0.0828285 -0.275621 0
-0.0686032 -0.272025 0
-0.0501469 -0.247534 0
-0.0287319 -0.196274 0
-0.0101017 -0.114883 0
0 0 0
0 0 0
-0.0095601 0.112987 0
-0.0245788 0.189703 0
-0.0407837 0.236232 0
-0.0539025 0.258661 0
-0.0625539 0.262444 0
-0.0653564 0.253037 0
-0.0635227 0.234679 0
-0.058265 0.211612 0
-0.0509013 0.185488 0
-0.0427493 0.15796 0
-0.0346606 0.129646 0
-0.0274865 0.101165 0
-0.0217624 0.0725532 0
-0.0180238 0.0438451 0
-0.0164979 0.0148503 0
-0.017412 -0.0146225 0
-0.0207431 -0.0448067 0
-0.0264678 -0.0759357 0
-0.0341743 -0.108064 0
-0.0434505 -0.141247 0
-0.0533904 -0.174889 0
-0.0630878 -0.208396 0
-0.0708225 -0.239747 0
-0.0748741 -0.266923 0
-0.0733839 -0.284384 0
-0.0644929 -0.286591 0
-0.0495998 -0.266345 0
-0.0301033 -0.216446 0
-0.0116783 -0.129973 0
0 0 0
0 0 0
-0.0105004 0.125676 0
-0.0252882 0.205555 0
-0.0393055 0.249294 0
-0.047494 0.266547 0
-0.0491764 0.264264 0
-0.0436752 0.249391 0
-0.0332177 0.226808 0
-0.0200311 0.201394 0
-0.00556541 0.174374 0
0.00872955 0.146971 0
0.0219627 0.119648 0
0.0332432 0.0928652 0
0.042088 0.0664763 0
0.0480146 0.040334 0
0.0508039 0.0141352 0
0.050237 -0.0124232 0
0.0462848 -0.039702 0
0.0389184 -0.0680624 0
0.0284233 -0.0977945 0
0.0150851 -0.129189 0
-0.000270229 -0.161926 0
-0.0168165 -0.195686 0
-0.0328071 -0.229108 0
-0.0464954 -0.26083 0
-0.0548259 -0.284714 0
-0.0547429 -0.294625 0
-0.0464729 -0.281259 0
-0.030242 -0.235311 0
-0.0125759 -0.145365 0
0 0 0
0 0 0
-0.00972114 0.137401 0
-0.0248979 0.219238 0
-0.0365995 0.258224 0
-0.0358952 0.267072 0
-0.0256729 0.256081 0
-0.00882053 0.23555 0
0.012072 0.209761 0
0.0344148 0.182998 0
0.0566762 0.156139 0
0.0773246 0.130059 0
0.0956202 0.104927 0
0.110823 0.0809147 0
0.12258 0.0577294 0
0.130536 0.0350802 0
0.13452 0.0125826 0
0.13436 -0.0101482 0
0.129976 -0.0335542 0
0.121289 -0.0580775 0
0.1084 -0.084182 0
0.0914108 -0.112332 0
0.070879 -0.14258 0
0.0473632 -0.17498 0
0.0224606 -0.20877 0
-0.00223199 -0.24319 0
-0.0233338 -0.273052 0
-0.0374642 -0.29317 0
-0.0405494 -0.290266 0
-0.0285158 -0.251065 0
-0.0115903 -0.159623 0
0 0 0
0 0 0
-0.00902084 0.150826 0
-0.0198071 0.229455 0
-0.0226524 0.257076 0
-0.00785065 0.254877 0
0.0179025 0.235148 0
0.0479111 0.210179 0
0.07978 0.182975 0
0.111114 0.156542 0
0.140537 0.13139 0
0.166676 0.108026 0
0.189097 0.0862961 0
0.207364 0.0660459 0
0.221314 0.0468954 0
0.230781 0.028465 0
0.235669 0.010336 0
0.23588 -0.00791012 0
0.231296 -0.0267407 0
0.221796 -0.0466229 0
0.20728 -0.0681038 0
0.187648 -0.0917308 0
0.163061 -0.117923 0
0.133681 -0.1471 0
0.100695 -0.179044 0
0.0652918 -0.213538 0
0.0303514 -0.247213 0
-0.00124539 -0.276703 0
-0.021042 -0.28653 0
-0.0205819 -0.261221 0
-0.0101422 -0.174477 0
0 0 0
0 0 0
-0.0101979 0.168617 0
-0.00641503 0.234913 0
0.0125491 0.239903 0
0.047895 0.224603 0
0.0914955 0.198715 0
0.135223 0.171944 0
0.17734 0.145888 0
0.216107 0.122143 0
0.250733 0.100733 0
0.280426 0.0816767 0
0.305177 0.064566 0
0.324977 0.0489911 0
0.339892 0.0345571 0
0.34999 0.0208694 0
0.355267 0.00753939 0
0.35572 -0.00582116 0
0.351209 -0.0196388 0
0.341591 -0.0343399 0
0.326588 -0.0504368 0
0.305918 -0.0684414 0
0.279279 -0.0890279 0
0.246365 -0.11287 0
0.207611 -0.14024 0
0.163452 -0.171406 0
0.115489 -0.205013 0
0.0653247 -0.239701 0
0.0228367 -0.263214 0
-0.00209787 -0.263297 0
-0.00965229 -0.191656 0
0 0 0
0 0 0
0.0118926 0.164938 0
0.046562 0.21332 0
0.0963052 0.198919 0
0.153419 0.175514 0
0.211775 0.14877 0
0.265244 0.124354 0
0.313225 0.102609 0
0.355117 0.0838788 0
0.390967 0.067838 0
0.420825 0.054163 0
0.445098 0.0423232 0
0.464191 0.0317879 0
0.478373 0.0222222 0
0.487913 0.0132916 0
0.492892 0.00468842 0
0.493392 -0.00389467 0
0.489268 -0.0127919 0
0.480377 -0.0223375 0
0.466324 -0.032922 0
0.446717 -0.0449358 0
0.420866 -0.0591286 0
0.388081 -0.0762503 0
0.347895 -0.0968321 0
0.299841 -0.121405 0
0.243859 -0.150233 0
0.179888 -0.18358 0
0.115083 -0.21431 0
0.0565957 -0.235286 0
0.0147828 -0.184515 0
0 0 0
2.77334e-30 0 0
0.0823952 0.113955 0
0.170408 0.142382 0
0.255916 0.126336 0
0.330799 0.106875 0
0.39541 0.0873007 0
0.450103 0.070917 0
0.495911 0.0572495 0
0.533866 0.0458243 0
0.564946 0.0363754 0
0.590128 0.0286366 0
0.610097 0.0221542 0
0.625537 0.016474 0
0.636816 0.0113985 0
0.644302 0.00672997 0
0.648122 0.00227896 0
0.648405 -0.00214398 0
0.645025 -0.0067435 0
0.637855 -0.0117243 0
0.626494 -0.0173005 0
0.61054 -0.0236862 0
0.589152 -0.0314597 0
0.561489 -0.0411992 0
0.526231 -0.0532967 0
0.482052 -0.068144 0
0.427242 -0.0866582 0
0.360088 -0.109756 0
0.279693 -0.133809 0
0.185158 -0.155186 0
0.0880664 -0.12641 0
2.77334e-30 0 0
0.25 0 0
0.359151 0.0481481 0
0.457446 0.058981 0
0.540706 0.0505606 0
0.604753 0.0409487 0
0.654214 0.0318595 0
0.693716 0.0250071 0
0.724976 0.0197368 0
0.749709 0.0153936 0
0.769135 0.0119082 0
0.784474 0.00921108 0
0.796342 0.00704956 0
0.805359 0.00517094 0
0.811824 0.0035148 0
0.816037 0.00202072 0
0.818108 0.000614861 0
0.818146 -0.000776583 0
0.816072 -0.00223303 0
0.811804 -0.00383391 0
0.805063 -0.00563795 0
0.795572 -0.00770389 0
0.782681 -0.0103179 0
0.765745 -0.0137661 0
0.743354 -0.0181728 0
0.7141 -0.0236625 0
0.675876 -0.0310073 0
0.626575 -0.0409795 0
0.560166 -0.0522068 0
0.470617 -0.063317 0
0.364904 -0.0530135 0
0.25 0 0
1 0 0
1 0 0
1 0 0
1 0 0
1 0 0
1 0 0
1 0 0
1 0 0
1 0 0
1 0 0
1 0 0
1 0 0
1 0 0
1 0 0
1 0 0
1 0 0
1 0 0
1 0 0
1 0 0
1 0 0
1 0 0
1 0 0
1 0 0
1 0 0
1 0 0
1 0 0
1 0 0
1 0 0
1 0 0
1 0 0
1 0 0
      </DataArray> 
      <DataArray type="Float64" NumberOfComponents="3" Name="Real Velocity" format="ascii">
0 0 0
0 0 0
0 0 0
0 0 0
0 0 0
0 0 0
0 0 0
0 0 0
0 0 0
0 0 0
0 0 0
0 0 0
0 0 0
0 0 0