<?xml version="1.0"?>
<VTKFile type="UnstructuredGrid">
  <UnstructuredGrid>
  <Piece NumberOfPoints="441"  NumberOfCells="200">
    <Points>
      <DataArray type="Float64" NumberOfComponents="3" format="ascii">
0 0 0
1 0 0
1 1 0
0 1 0
0.1 0 0
0.2 0 0
0.3 0 0
0.4 0 0
0.5 0 0
0.6 0 0
0.7 0 0
0.8 0 0
0.9 0 0
0.05 0 0
0.15 0 0
0.25 0 0
0.35 0 0
0.45 0 0
0.55 0 0
0.65 0 0
0.75 0 0
0.85 0 0
0.95 0 0
1 0.1 0
1 0.2 0
1 0.3 0
1 0.4 0
1 0.5 0
1 0.6 0
1 0.7 0
1 0.8 0
1 0.9 0
1 0.05 0
1 0.15 0
1 0.25 0
1 0.35 0
1 0.45 0
1 0.55 0
1 0.65 0
1 0.75 0
1 0.85 0
1 0.95 0
0.9 1 0
0.8 1 0
0.7 1 0
0.6 1 0
0.5 1 0
0.4 1 0
0.3 1 0
0.2 1 0
0.1 1 0
0.95 1 0
0.85 1 0
0.75 1 0
0.65 1 0
0.55 1 0
0.45 1 0
0.35 1 0
0.25 1 0
0.15 1 0
0.05 1 0
0 0.9 0
0 0.8 0
0 0.7 0
0 0.6 0
0 0.5 0
0 0.4 0
0 0.3 0
0 0.2 0
0 0.1 0
0 0.95 0
0 0.85 0
0 0.75 0
0 0.65 0
0 0.55 0
0 0.45 0
0 0.35 0
0 0.25 0
0 0.15 0
0 0.05 0
0.1 0.1 0
0.1 0.2 0
0.1 0.3 0
0.1 0.4 0
0.1 0.5 0
0.1 0.6 0
0.1 0.7 0
0.1 0.8 0
0.1 0.9 0
0.2 0.1 0
0.2 0.2 0
0.2 0.3 0
0.2 0.4 0
0.2 0.5 0
0.2 0.6 0
0.2 0.7 0
0.2 0.8 0
0.2 0.9 0
0.3 0.1 0
0.3 0.2 0
0.3 0.3 0
0.3 0.4 0
0.3 0.5 0
0.3 0.6 0
0.3 0.7 0
0.3 0.8 0
0.3 0.9 0
0.4 0.1 0
0.4 0.2 0
0.4 0.3 0
0.4 0.4 0
0.4 0.5 0
0.4 0.6 0
0.4 0.7 0
0.4 0.8 0
0.4 0.9 0
0.5 0.1 0
0.5 0.2 0
0.5 0.3 0
0.5 0.4 0
0.5 0.5 0
0.5 0.6 0
0.5 0.7 0
0.5 0.8 0
0.5 0.9 0
0.6 0.1 0
0.6 0.2 0
0.6 0.3 0
0.6 0.4 0
0.6 0.5 0
0.6 0.6 0
0.6 0.7 0
0.6 0.8 0
0.6 0.9 0
0.7 0.1 0
0.7 0.2 0
0.7 0.3 0
0.7 0.4 0
0.7 0.5 0
0.7 0.6 0
0.7 0.7 0
0.7 0.8 0
0.7 0.9 0
0.8 0.1 0
0.8 0.2 0
0.8 0.3 0
0.8 0.4 0
0.8 0.5 0
0.8 0.6 0
0.8 0.7 0
0.8 0.8 0
0.8 0.9 0
0.9 0.1 0
0.9 0.2 0
0.9 0.3 0
0.9 0.4 0
0.9 0.5 0
0.9 0.6 0
0.9 0.7 0
0.9 0.8 0
0.9 0.9 0
0.1 0.05 0
0.05 0.05 0
0.05 0.1 0
0.1 0.15 0
0.05 0.15 0
0.05 0.2 0
0.1 0.25 0
0.05 0.25 0
0.05 0.3 0
0.1 0.35 0
0.05 0.35 0
0.05 0.4 0
0.1 0.45 0
0.05 0.45 0
0.05 0.5 0
0.1 0.55 0
0.05 0.55 0
0.05 0.6 0
0.1 0.65 0
0.05 0.65 0
0.05 0.7 0
0.1 0.75 0
0.05 0.75 0
0.05 0.8 0
0.1 0.85 0
0.05 0.85 0
0.05 0.9 0
0.1 0.95 0
0.05 0.95 0
0.2 0.05 0
0.15 0.05 0
0.15 0.1 0
0.2 0.15 0
0.15 0.15 0
0.15 0.2 0
0.2 0.25 0
0.15 0.25 0
0.15 0.3 0
0.2 0.35 0
0.15 0.35 0
0.15 0.4 0
0.2 0.45 0
0.15 0.45 0
0.15 0.5 0
0.2 0.55 0
0.15 0.55 0
0.15 0.6 0
0.2 0.65 0
0.15 0.65 0
0.15 0.7 0
0.2 0.75 0
0.15 0.75 0
0.15 0.8 0
0.2 0.85 0
0.15 0.85 0
0.15 0.9 0
0.2 0.95 0
0.15 0.95 0
0.3 0.05 0
0.25 0.05 0
0.25 0.1 0
0.3 0.15 0
0.25 0.15 0
0.25 0.2 0
0.3 0.25 0
0.25 0.25 0
0.25 0.3 0
0.3 0.35 0
0.25 0.35 0
0.25 0.4 0
0.3 0.45 0
0.25 0.45 0
0.25 0.5 0
0.3 0.55 0
0.25 0.55 0
0.25 0.6 0
0.3 0.65 0
0.25 0.65 0
0.25 0.7 0
0.3 0.75 0
0.25 0.75 0
0.25 0.8 0
0.3 0.85 0
0.25 0.85 0
0.25 0.9 0
0.3 0.95 0
0.25 0.95 0
0.4 0.05 0
0.35 0.05 0
0.35 0.1 0
0.4 0.15 0
0.35 0.15 0
0.35 0.2 0
0.4 0.25 0
0.35 0.25 0
0.35 0.3 0
0.4 0.35 0
0.35 0.35 0
0.35 0.4 0
0.4 0.45 0
0.35 0.45 0
0.35 0.5 0
0.4 0.55 0
0.35 0.55 0
0.35 0.6 0
0.4 0.65 0
0.35 0.65 0
0.35 0.7 0
0.4 0.75 0
0.35 0.75 0
0.35 0.8 0
0.4 0.85 0
0.35 0.85 0
0.35 0.9 0
0.4 0.95 0
0.35 0.95 0
0.5 0.05 0
0.45 0.05 0
0.45 0.1 0
0.5 0.15 0
0.45 0.15 0
0.45 0.2 0
0.5 0.25 0
0.45 0.25 0
0.45 0.3 0
0.5 0.35 0
0.45 0.35 0
0.45 0.4 0
0.5 0.45 0
0.45 0.45 0
0.45 0.5 0
0.5 0.55 0
0.45 0.55 0
0.45 0.6 0
0.5 0.65 0
0.45 0.65 0
0.45 0.7 0
0.5 0.75 0
0.45 0.75 0
0.45 0.8 0
0.5 0.85 0
0.45 0.85 0
0.45 0.9 0
0.5 0.95 0
0.45 0.95 0
0.6 0.05 0
0.55 0.05 0
0.55 0.1 0
0.6 0.15 0
0.55 0.15 0
0.55 0.2 0
0.6 0.25 0
0.55 0.25 0
0.55 0.3 0
0.6 0.35 0
0.55 0.35 0
0.55 0.4 0
0.6 0.45 0
0.55 0.45 0
0.55 0.5 0
0.6 0.55 0
0.55 0.55 0
0.55 0.6 0
0.6 0.65 0
0.55 0.65 0
0.55 0.7 0
0.6 0.75 0
0.55 0.75 0
0.55 0.8 0
0.6 0.85 0
0.55 0.85 0
0.55 0.9 0
0.6 0.95 0
0.55 0.95 0
0.7 0.05 0
0.65 0.05 0
0.65 0.1 0
0.7 0.15 0
0.65 0.15 0
0.65 0.2 0
0.7 0.25 0
0.65 0.25 0
0.65 0.3 0
0.7 0.35 0
0.65 0.35 0
0.65 0.4 0
0.7 0.45 0
0.65 0.45 0
0.65 0.5 0
0.7 0.55 0
0.65 0.55 0
0.65 0.6 0
0.7 0.65 0
0.65 0.65 0
0.65 0.7 0
0.7 0.75 0
0.65 0.75 0
0.65 0.8 0
0.7 0.85 0
0.65 0.85 0
0.65 0.9 0
0.7 0.95 0
0.65 0.95 0
0.8 0.05 0
0.75 0.05 0
0.75 0.1 0
0.8 0.15 0
0.75 0.15 0
0.75 0.2 0
0.8 0.25 0
0.75 0.25 0
0.75 0.3 0
0.8 0.35 0
0.75 0.35 0
0.75 0.4 0
0.8 0.45 0
0.75 0.45 0
0.75 0.5 0
0.8 0.55 0
0.75 0.55 0
0.75 0.6 0
0.8 0.65 0
0.75 0.65 0
0.75 0.7 0
0.8 0.75 0
0.75 0.75 0
0.75 0.8 0
0.8 0.85 0
0.75 0.85 0
0.75 0.9 0
0.8 0.95 0
0.75 0.95 0
0.9 0.05 0
0.85 0.05 0
0.85 0.1 0
0.9 0.15 0
0.85 0.15 0
0.85 0.2 0
0.9 0.25 0
0.85 0.25 0
0.85 0.3 0
0.9 0.35 0
0.85 0.35 0
0.85 0.4 0
0.9 0.45 0
0.85 0.45 0
0.85 0.5 0
0.9 0.55 0
0.85 0.55 0
0.85 0.6 0
0.9 0.65 0
0.85 0.65 0
0.85 0.7 0
0.9 0.75 0
0.85 0.75 0
0.85 0.8 0
0.9 0.85 0
0.85 0.85 0
0.85 0.9 0
0.9 0.95 0
0.85 0.95 0
0.95 0.05 0
0.95 0.1 0
0.95 0.15 0
0.95 0.2 0
0.95 0.25 0
0.95 0.3 0
0.95 0.35 0
0.95 0.4 0
0.95 0.45 0
0.95 0.5 0
0.95 0.55 0
0.95 0.6 0
0.95 0.65 0
0.95 0.7 0
0.95 0.75 0
0.95 0.8 0
0.95 0.85 0
0.95 0.9 0
0.95 0.95 0
      </DataArray>
    </Points>
    <Cells>
      <DataArray type="Int32" Name="connectivity" format="ascii">
0 4 80 13 161 162
80 69 0 163 79 162
69 80 81 163 164 165
81 68 69 166 78 165
68 81 82 166 167 168
82 67 68 169 77 168
67 82 83 169 170 171
83 66 67 172 76 171
66 83 84 172 173 174
84 65 66 175 75 174
65 84 85 175 176 177
85 64 65 178 74 177
64 85 86 178 179 180
86 63 64 181 73 180
63 86 87 181 182 183
87 62 63 184 72 183
62 87 88 184 185 186
88 61 62 187 71 186
61 88 50 187 188 189
50 3 61 60 70 189
4 5 89 14 190 191
89 80 4 192 161 191
80 89 90 192 193 194
90 81 80 195 164 194
81 90 91 195 196 197
91 82 81 198 167 197
82 91 92 198 199 200
92 83 82 201 170 200
83 92 93 201 202 203
93 84 83 204 173 203
84 93 94 204 205 206
94 85 84 207 176 206
85 94 95 207 208 209
95 86 85 210 179 209
86 95 96 210 211 212
96 87 86 213 182 212
87 96 97 213 214 215
97 88 87 216 185 215
88 97 49 216 217 218
49 50 88 59 188 218
5 6 98 15 219 220
98 89 5 221 190 220
89 98 99 221 222 223
99 90 89 224 193 223
90 99 100 224 225 226
100 91 90 227 196 226
91 100 101 227 228 229
101 92 91 230 199 229
92 101 102 230 231 232
102 93 92 233 202 232
93 102 103 233 234 235
103 94 93 236 205 235
94 103 104 236 237 238
104 95 94 239 208 238
95 104 105 239 240 241
105 96 95 242 211 241
96 105 106 242 243 244
106 97 96 245 214 244
97 106 48 245 246 247
48 49 97 58 217 247
6 7 107 16 248 249
107 98 6 250 219 249
98 107 108 250 251 252
108 99 98 253 222 252
99 108 109 253 254 255
109 100 99 256 225 255
100 109 110 256 257 258
110 101 100 259 228 258
101 110 111 259 260 261
111 102 101 262 231 261
102 111 112 262 263 264
112 103 102 265 234 264
103 112 113 265 266 267
113 104 103 268 237 267
104 113 114 268 269 270
114 105 104 271 240 270
105 114 115 271 272 273
115 106 105 274 243 273
106 115 47 274 275 276
47 48 106 57 246 276
7 8 116 17 277 278
116 107 7 279 248 278
107 116 117 279 280 281
117 108 107 282 251 281
108 117 118 282 283 284
118 109 108 285 254 284
109 118 119 285 286 287
119 110 109 288 257 287
110 119 120 288 289 290
120 111 110 291 260 290
111 120 121 291 292 293
121 112 111 294 263 293
112 121 122 294 295 296
122 113 112 297 266 296
113 122 123 297 298 299
123 114 113 300 269 299
114 123 124 300 301 302
124 115 114 303 272 302
115 124 46 303 304 305
46 47 115 56 275 305
8 9 125 18 306 307
125 116 8 308 277 307
116 125 126 308 309 310
126 117 116 311 280 310
117 126 127 311 312 313
127 118 117 314 283 313
118 127 128 314 315 316
128 119 118 317 286 316
119 128 129 317 318 319
129 120 119 320 289 319
120 129 130 320 321 322
130 121 120 323 292 322
121 130 131 323 324 325
131 122 121 326 295 325
122 131 132 326 327 328
132 123 122 329 298 328
123 132 133 329 330 331
133 124 123 332 301 331
124 133 45 332 333 334
45 46 124 55 304 334
9 10 134 19 335 336
134 125 9 337 306 336
125 134 135 337 338 339
135 126 125 340 309 339
126 135 136 340 341 342
136 127 126 343 312 342
127 136 137 343 344 345
137 128 127 346 315 345
128 137 138 346 347 348
138 129 128 349 318 348
129 138 139 349 350 351
139 130 129 352 321 351
130 139 140 352 353 354
140 131 130 355 324 354
131 140 141 355 356 357
141 132 131 358 327 357
132 141 142 358 359 360
142 133 132 361 330 360
133 142 44 361 362 363
44 45 133 54 333 363
10 11 143 20 364 365
143 134 10 366 335 365
134 143 144 366 367 368
144 135 134 369 338 368
135 144 145 369 370 371
145 136 135 372 341 371
136 145 146 372 373 374
146 137 136 375 344 374
137 146 147 375 376 377
147 138 137 378 347 377
138 147 148 378 379 380
148 139 138 381 350 380
139 148 149 381 382 383
149 140 139 384 353 383
140 149 150 384 385 386
150 141 140 387 356 386
141 150 151 387 388 389
151 142 141 390 359 389
142 151 43 390 391 392
43 44 142 53 362 392
11 12 152 21 393 394
152 143 11 395 364 394
143 152 153 395 396 397
153 144 143 398 367 397
144 153 154 398 399 400
154 145 144 401 370 400
145 154 155 401 402 403
155 146 145 404 373 403
146 155 156 404 405 406
156 147 146 407 376 406
147 156 157 407 408 409
157 148 147 410 379 409
148 157 158 410 411 412
158 149 148 413 382 412
149 158 159 413 414 415
159 150 149 416 385 415
150 159 160 416 417 418
160 151 150 419 388 418
151 160 42 419 420 421
42 43 151 52 391 421
12 1 23 22 32 422
23 152 12 423 393 422
152 23 24 423 33 424
24 153 152 425 396 424
153 24 25 425 34 426
25 154 153 427 399 426
154 25 26 427 35 428
26 155 154 429 402 428
155 26 27 429 36 430
27 156 155 431 405 430
156 27 28 431 37 432
28 157 156 433 408 432
157 28 29 433 38 434
29 158 157 435 411 434
158 29 30 435 39 436
30 159 158 437 414 436
159 30 31 437 40 438
31 160 159 439 417 438
160 31 2 439 41 440
2 42 160 51 420 440
      </DataArray>
      <DataArray type="Int32" Name="offsets" format="ascii">
6
12
18
24
30
36
42
48
54
60
66
72
78
84
90
96
102
108
114
120
126
132
138
144
150
156
162
168
174
180
186
192
198
204
210
216
222
228
234
240
246
252
258
264
270
276
282
288
294
300
306
312
318
324
330
336
342
348
354
360
366
372
378
384
390
396
402
408
414
420
426
432
438
444
450
456
462
468
474
480
486
492
498
504
510
516
522
528
534
540
546
552
558
564
570
576
582
588
594
600
606
612
618
624
630
636
642
648
654
660
666
672
678
684
690
696
702
708
714
720
726
732
738
744
750
756
762
768
774
780
786
792
798
804
810
816
822
828
834
840
846
852
858
864
870
876
882
888
894
900
906
912
918
924
930
936
942
948
954
960
966
972
978
984
990
996
1002
1008
1014
1020
1026
1032
1038
1044
1050
1056
1062
1068
1074
1080
1086
1092
1098
1104
1110
1116
1122
1128
1134
1140
1146
1152
1158
1164
1170
1176
1182
1188
1194
1200
      </DataArray>
      <DataArray type="UInt8" Name="types" format="ascii">
22
22
22
22
22
22
22
22
22
22
22
22
22
22
22
22
22
22
22
22
22
22
22
22
22
22
22
22
22
22
22
22
22
22
22
22
22
22
22
22
22
22
22
22
22
22
22
22
22
22
22
22
22
22
22
22
22
22
22
22
22
22
22
22
22
22
22
22
22
22
22
22
22
22
22
22
22
22
22
22
22
22
22
22
22
22
22
22
22
22
22
22
22
22
22
22
22
22
22
22
22
22
22
22
22
22
22
22
22
22
22
22
22
22
22
22
22
22
22
22
22
22
22
22
22
22
22
22
22
22
22
22
22
22
22
22
22
22
22
22
22
22
22
22
22
22
22
22
22
22
22
22
22
22
22
22
22
22
22
22
22
22
22
22
22
22
22
22
22
22
22
22
22
22
22
22
22
22
22
22
22
22
22
22
22
22
22
22
22
22
22
22
22
22
22
22
22
22
22
22
      </DataArray>
    </Cells>
    <PointData>
      <DataArray type="Float64" NumberOfComponents="3" Name="Velocity" format="ascii">
0 0 0
0 0 0
0 0 0
0 0 0
0 0 0
0 0 0
0 0 0
0 0 0
0 0 0
0 0 0
0 0 0
0 0 0
0 0 0
0 0 0
0 0 0
0 0 0
0 0 0
0 0 0
0 0 0
0 0 0
0 0 0
0 0 0
0 0 0
0 0 0
0 0 0
0 0 0
0 0 0
0 0 0
0 0 0
0 0 0
0 0 0
0 0 0
0 0 0
0 0 0
0 0 0
0 0 0
0 0 0
0 0 0
0 0 0
0 0 0
0 0 0
0 0 0
1 0 0
1 0 0
1 0 0
1 0 0
1 0 0
1 0 0
1 0 0
1 0 0
1 0 0
1 0 0
1 0 0
1 0 0
1 0 0
1 0 0
1 0 0
1 0 0
1 0 0
1 0 0
1 0 0
0 0 0
0 0 0
0 0 0
0 0 0
0 0 0
0 0 0
0 0 0
0 0 0
0 0 0
0 0 0
0 0 0
0 0 0
0 0 0
0 0 0
0 0 0
0 0 0
0 0 0
0 0 0
0 0 0
-0.0645858 0.0759001 0
-0.0721173 0.206334 0
-0.00228376 0.374843 0
0.231795 0.840357 0
0.139622 0.677796 0
0.0870056 0.495977 0
0.0370459 0.381093 0
-0.0117944 0.33067 0
0.00783858 0.28887 0
-0.185486 0.0860185 0
-0.216441 0.23747 0
-0.125614 0.419819 0
0.189986 0.800856 0
0.290094 0.721908 0
0.247186 0.58442 0
0.152019 0.447599 0
0.0811289 0.326734 0
0.210414 0.164116 0
-0.302777 0.0702057 0
-0.369151 0.195071 0
-0.255597 0.327482 0
0.182779 0.593324 0
0.370202 0.526375 0
0.373177 0.437888 0
0.271976 0.339314 0
0.214877 0.225461 0
0.370658 0.0939319 0
-0.391173 0.0439011 0
-0.468736 0.112922 0
-0.330397 0.188478 0
0.211682 0.323206 0
0.424402 0.274179 0
0.440678 0.228926 0
0.354805 0.179909 0
0.313913 0.118582 0
0.47183 0.0452691 0
-0.43284 0.0138039 0
-0.514301 0.0217715 0
-0.349336 0.0266211 0
0.247445 0.0407934 0
0.452164 0.0212673 0
0.461926 0.0175938 0
0.382931 0.0193828 0
0.353217 0.0192392 0
0.51001 0.00650351 0
-0.428349 -0.0247483 0
-0.506628 -0.0743561 0
-0.325144 -0.125248 0
0.256562 -0.241926 0
0.443156 -0.22513 0
0.435885 -0.187139 0
0.350794 -0.134013 0
0.32698 -0.0765986 0
0.491612 -0.0282082 0
-0.369714 -0.0658307 0
-0.437418 -0.169783 0
-0.269429 -0.278956 0
0.239963 -0.522096 0
0.397977 -0.467934 0
0.363683 -0.383064 0
0.270678 -0.280321 0
0.243574 -0.174446 0
0.419583 -0.0679179 0
-0.250905 -0.0990687 0
-0.310438 -0.258022 0
-0.191822 -0.410172 0
0.220264 -0.766653 0
0.306462 -0.677624 0
0.247213 -0.529842 0
0.155427 -0.396024 0
0.107319 -0.27709 0
0.284659 -0.119044 0
-0.0964626 -0.0973851 0
-0.135025 -0.269899 0
-0.104168 -0.442107 0
0.25797 -0.885176 0
0.155776 -0.668992 0
0.0960719 -0.481061 0
0.0465113 -0.372537 0
0.0115139 -0.311053 0
0.0477299 -0.216028 0
-0.044183 0.0286892 0
-0.0139725 0.0199365 0
-0.0206371 0.0507848 0
-0.0749431 0.137484 0
-0.0237416 0.0902329 0
-0.0203665 0.133396 0
-0.051333 0.275305 0
-0.0089695 0.178343 0
0.0245641 0.251051 0
0.100573 0.579733 0
0.104135 0.439328 0
0.209283 0.648973 0
0.192031 0.766515 0
0.118199 0.519928 0
0.0633557 0.420242 0
0.106889 0.578593 0
0.0347548 0.343989 0
0.029234 0.294416 0
0.0618017 0.431051 0
0.0205212 0.260442 0
0.0117008 0.234297 0
0.00980151 0.351671 0
-0.000594157 0.226062 0
-0.00944205 0.224965 0
-0.0249358 0.31773 0
-0.0182104 0.241958 0
-0.00292084 0.255667 0
0.277264 0.137468 0
0.13916 0.188594 0
-0.12476 0.0305444 0
-0.0841536 0.0315895 0
-0.123699 0.0860943 0
-0.21348 0.15727 0
-0.140746 0.155461 0
-0.14088 0.234652 0
-0.19151 0.317974 0
-0.118953 0.313897 0
-0.0579811 0.414312 0
0.0210434 0.576848 0
0.0711768 0.597142 0
0.208786 0.848893 0
0.259764 0.772111 0
0.236115 0.813625 0
0.226269 0.751011 0
0.281858 0.656662 0
0.199959 0.668437 0
0.16601 0.583246 0
0.20109 0.511843 0
0.126635 0.508472 0
0.0864428 0.446755 0
0.107487 0.386152 0
0.0484872 0.395866 0
0.0205453 0.350573 0
0.100427 0.25123 0
0.0250244 0.29311 0
0.104815 0.218298 0
0.490718 0.0699947 0
0.386897 0.098766 0
-0.200847 0.0246296 0
-0.167679 0.0302504 0
-0.248531 0.0810828 0
-0.354189 0.128263 0
-0.285182 0.146331 0
-0.292754 0.221707 0
-0.34108 0.260806 0
-0.266627 0.296016 0
-0.187747 0.377671 0
-0.0590749 0.437439 0
-0.0202529 0.517375 0
0.182285 0.707479 0
0.298808 0.563309 0
0.279711 0.680382 0
0.334483 0.638503 0
0.393686 0.48392 0
0.346217 0.584768 0
0.317063 0.527721 0
0.324924 0.389868 0
0.267947 0.465635 0
0.215297 0.40489 0
0.230754 0.283801 0
0.170149 0.343008 0
0.148431 0.27977 0
0.2495 0.162378 0
0.179667 0.205673 0
0.299447 0.126357 0
0.615158 0.0359347 0
0.560533 0.0509579 0
-0.25712 0.0155449 0
-0.236531 0.0231569 0
-0.352503 0.0584075 0
-0.454388 0.0760586 0
-0.407057 0.101438 0
-0.424836 0.15394 0
-0.433478 0.152825 0
-0.399431 0.210329 0
-0.300484 0.259882 0
-0.0886932 0.24343 0
-0.0796292 0.344113 0
0.196387 0.459569 0
0.342226 0.297724 0
0.322692 0.431677 0
0.401501 0.401913 0
0.455464 0.25131 0
0.430012 0.36967 0
0.412993 0.335499 0
0.400378 0.205702 0
0.369576 0.29992 0
0.320191 0.261394 0
0.320417 0.150945 0
0.281608 0.218602 0
0.272311 0.170951 0
0.356464 0.0825306 0
0.312441 0.120273 0
0.42933 0.0695345 0
0.683258 0.0166988 0
0.653327 0.0265752 0
-0.285394 0.00412021 0
-0.279359 0.0128307 0
-0.417552 0.0286963 0
-0.501655 0.0190718 0
-0.479681 0.0472726 0
-0.494918 0.0672585 0
-0.470039 0.0268457 0
-0.460112 0.0914933 0
-0.34159 0.106785 0
-0.0756511 0.0331956 0
-0.0833234 0.138587 0
0.229466 0.179779 0
0.374553 0.0281525 0
0.36116 0.161025 0
0.441426 0.146775 0
0.478715 0.0182328 0
0.471443 0.133735 0
0.456685 0.122458 0
0.423722 0.0183446 0
0.4179 0.111141 0
0.37494 0.0988787 0
0.353724 0.0205246 0
0.343891 0.0851182 0
0.34205 0.0676646 0
0.398494 0.0135747 0
0.385594 0.0473283 0
0.497276 0.0262672 0
0.707942 0.00254967 0
0.698702 0.00989671 0
-0.282379 -0.00929526 0
-0.292643 -0.000168564 0
-0.437814 -0.00507226 0
-0.496599 -0.0494174 0
-0.505413 -0.0160682 0
-0.521203 -0.0254136 0
-0.4558 -0.0945085 0
-0.472895 -0.0332589 0
-0.337025 -0.0489883 0
-0.0479455 -0.173315 0
-0.0594322 -0.0687451 0
0.254744 -0.099905 0
0.37569 -0.23776 0
0.379675 -0.104802 0
0.45225 -0.102167 0
0.460409 -0.208235 0
0.474804 -0.0957327 0
0.454411 -0.0852817 0
0.393507 -0.161218 0
0.414619 -0.0718091 0
0.373841 -0.0576166 0
0.324202 -0.105557 0
0.34651 -0.0431776 0
0.347391 -0.0289266 0
0.375675 -0.0501344 0
0.394191 -0.0182467 0
0.507357 -0.0102962 0
0.696267 -0.009774 0
0.705305 -0.00308017 0
-0.244078 -0.0251544 0
-0.27296 -0.0155378 0
-0.407265 -0.0462174 0
-0.427662 -0.116363 0
-0.468417 -0.0840247 0
-0.477984 -0.121126 0
-0.392532 -0.219202 0
-0.429368 -0.156383 0
-0.298271 -0.202071 0
-0.020087 -0.38037 0
-0.0344752 -0.27409 0
0.25221 -0.38245 0
0.345066 -0.500479 0
0.365412 -0.370412 0
0.42537 -0.347984 0
0.398457 -0.428067 0
0.435204 -0.319882 0
0.405562 -0.286755 0
0.31535 -0.331694 0
0.360268 -0.24847 0
0.317024 -0.208771 0
0.242438 -0.227526 0
0.28988 -0.166683 0
0.292879 -0.124583 0
0.293292 -0.120138 0
0.342513 -0.0832726 0
0.46301 -0.046315 0
0.649362 -0.0235962 0
0.67608 -0.0153994 0
-0.165752 -0.0365017 0
-0.212406 -0.0305528 0
-0.316628 -0.0850299 0
-0.295046 -0.177526 0
-0.366985 -0.15021 0
-0.379936 -0.217104 0
-0.283652 -0.331933 0
-0.341162 -0.278474 0
-0.227172 -0.345901 0
0.0175386 -0.555294 0
0.00143352 -0.47379 0
0.230738 -0.655601 0
0.283805 -0.7334 0
0.317387 -0.627856 0
0.356436 -0.582789 0
0.287398 -0.603132 0
0.349009 -0.527349 0
0.309685 -0.467402 0
0.199816 -0.458902 0
0.260504 -0.405383 0
0.214716 -0.345514 0
0.120286 -0.336135 0
0.183281 -0.286085 0
0.180348 -0.226653 0
0.15095 -0.203564 0
0.229328 -0.160149 0
0.360428 -0.0903174 0
0.556413 -0.0412597 0
0.607389 -0.0303536 0
-0.062438 -0.0341619 0
-0.115557 -0.0378738 0
-0.174263 -0.106321 0
-0.119946 -0.179796 0
-0.208126 -0.191699 0
-0.226078 -0.282614 0
-0.13918 -0.356712 0
-0.21216 -0.366524 0
-0.142715 -0.455073 0
0.0716767 -0.620849 0
0.0401596 -0.613537 0
0.235286 -0.863137 0
0.197344 -0.778644 0
0.243618 -0.802507 0
0.236774 -0.721669 0
0.124367 -0.565113 0
0.211129 -0.628713 0
0.173915 -0.545444 0
0.0726731 -0.419454 0
0.135243 -0.473262 0
0.0973471 -0.414778 0
0.0258953 -0.339121 0
0.0671199 -0.363866 0
0.0521488 -0.315472 0
0.00345904 -0.270163 0
0.077937 -0.243963 0
0.191353 -0.15637 0
0.35051 -0.095232 0
0.475044 -0.053102 0
-0.0198081 -0.0218081 0
-0.0316287 -0.0651558 0
-0.0409301 -0.123681 0
-0.0484729 -0.190123 0
-0.0492985 -0.26872 0
-0.0311242 -0.335861 0
0.0897234 -0.476199 0
0.228834 -0.677936 0
0.123368 -0.54124 0
0.0722418 -0.439337 0
0.0487704 -0.36091 0
0.0374089 -0.305447 0
0.028958 -0.268776 0
0.018527 -0.242101 0
0.0104887 -0.23198 0
0.000324985 -0.229609 0
-0.00797976 -0.245717 0
0.0192736 -0.239929 0
0.282259 -0.127654 0
      </DataArray> 
      <DataArray type="Float64" NumberOfComponents="3" Name="Real Velocity" format="ascii">
0 0 0
0 0 0
0 0 0
0 0 0
0 0 0
0 0 0
0 0 0
0 0 0
0 0 0
0 0 0
0 0 0
0 0 0
0 0 0
0 0 0
0 0 0
0 0 0
0 0 0
0 0 0
0 0 0
0 0 0
0 0 0
0 0 0
0 0 0
0 0 0
0 0 0
0 0 0
0 0 0
0 0 0
0 0 0
0 0 0
0 0 0
0 0 0
0 0 0
0 0 0
0 0 0
0 0 0
0 0 0
0 0 0
0 0 0
0 0 0
0 0 0
0 0 0
1 0 0
1 0 0
1 0 0
1 0 0
1 0 0
1 0 0
1 0 0
1 0 0
1 0 0
1 0 0
1 0 0
1 0 0
1 0 0
1 0 0
1 0 0
1 0 0
1 0 0
1 0 0
1 0 0
0 0 0
0 0 0
0 0 0
0 0 0
0 0 0
0 0 0
0 0 0
0 0 0
0 0 0
0 0 0
0 0 0
0 0 0
0 0 0
0 0 0
0 0 0
0 0 0
0 0 0
0 0 0
0 0 0
-0.000645858 0.000759001 0
-0.000721173 0.00206334 0
-2.28376e-05 0.00374843 0
0.00459 0.0166407 0
0.139622 0.677796 0
0.0870056 0.495977 0
0.0370459 0.381093 0
-0.0117944 0.33067 0
0.00783858 0.28887 0
-0.00185486 0.000860185 0
-0.00216441 0.0023747 0
-0.00125614 0.00419819 0
0.0037621 0.0158585 0
0.290094 0.721908 0
0.247186 0.58442 0
0.152019 0.447599 0
0.0811289 0.326734 0
0.210414 0.164116 0
-0.00302777 0.000702057 0
-0.00369151 0.00195071 0
-0.00255597 0.00327482 0
0.00361939 0.011749 0
0.370202 0.526375 0
0.373177 0.437888 0
0.271976 0.339314 0
0.214877 0.225461 0
0.370658 0.0939319 0
-0.00391173 0.000439011 0
-0.00468736 0.00112922 0
-0.00330397 0.00188478 0
0.00419171 0.00640012 0
0.424402 0.274179 0
0.440678 0.228926 0
0.354805 0.179909 0
0.313913 0.118582 0
0.47183 0.0452691 0
-0.0043284 0.000138039 0
-0.00514301 0.000217715 0
-0.00349336 0.000266211 0
0.00489989 0.000807789 0
0.452164 0.0212673 0
0.461926 0.0175938 0
0.382931 0.0193828 0
0.353217 0.0192392 0
0.51001 0.00650351 0
-0.00428349 -0.000247483 0
-0.00506628 -0.000743561 0
-0.00325144 -0.00125248 0
0.00508043 -0.00479062 0
0.443156 -0.22513 0
0.435885 -0.187139 0
0.350794 -0.134013 0
0.32698 -0.0765986 0
0.491612 -0.0282082 0
-0.00369714 -0.000658307 0
-0.00437418 -0.00169783 0
-0.00269429 -0.00278956 0
0.00475174 -0.0103385 0
0.397977 -0.467934 0
0.363683 -0.383064 0
0.270678 -0.280321 0
0.243574 -0.174446 0
0.419583 -0.0679179 0
-0.00250905 -0.000990687 0
-0.00310438 -0.00258022 0
-0.00191822 -0.00410172 0
0.00436167 -0.0151812 0
0.306462 -0.677624 0
0.247213 -0.529842 0
0.155427 -0.396024 0
0.107319 -0.27709 0
0.284659 -0.119044 0
-0.000964626 -0.000973851 0
-0.00135025 -0.00269899 0
-0.00104168 -0.00442107 0
0.00510831 -0.0175282 0
0.155776 -0.668992 0
0.0960719 -0.481061 0
0.0465113 -0.372537 0
0.0115139 -0.311053 0
0.0477299 -0.216028 0
-0.00044183 0.000286892 0
-0.000139725 0.000199365 0
-0.000206371 0.000507848 0
-0.000749431 0.00137484 0
-0.000237416 0.000902329 0
-0.000203665 0.00133396 0
-0.00051333 0.00275305 0
-8.9695e-05 0.00178343 0
0.000245641 0.00251051 0
0.00100573 0.00579733 0
0.00104135 0.00439328 0
0.00414421 0.012851 0
0.097917 0.390847 0
0.0602698 0.265112 0
0.0633557 0.420242 0
0.106889 0.578593 0
0.0347548 0.343989 0
0.029234 0.294416 0
0.0618017 0.431051 0
0.0205212 0.260442 0
0.0117008 0.234297 0
0.00980151 0.351671 0
-0.000594157 0.226062 0
-0.00944205 0.224965 0
-0.0249358 0.31773 0
-0.0182104 0.241958 0
-0.00292084 0.255667 0
0.277264 0.137468 0
0.13916 0.188594 0
-0.0012476 0.000305444 0
-0.000841536 0.000315895 0
-0.00123699 0.000860943 0
-0.0021348 0.0015727 0
-0.00140746 0.00155461 0
-0.0014088 0.00234652 0
-0.0019151 0.00317974 0
-0.00118953 0.00313897 0
-0.000579811 0.00414312 0
0.000210434 0.00576848 0
0.000711768 0.00597142 0
0.00413438 0.0168098 0
0.132454 0.3937 0
0.120395 0.414868 0
0.226269 0.751011 0
0.281858 0.656662 0
0.199959 0.668437 0
0.16601 0.583246 0
0.20109 0.511843 0
0.126635 0.508472 0
0.0864428 0.446755 0
0.107487 0.386152 0
0.0484872 0.395866 0
0.0205453 0.350573 0
0.100427 0.25123 0
0.0250244 0.29311 0
0.104815 0.218298 0
0.490718 0.0699947 0
0.386897 0.098766 0
-0.00200847 0.000246296 0
-0.00167679 0.000302504 0
-0.00248531 0.000810828 0
-0.00354189 0.00128263 0
-0.00285182 0.00146331 0
-0.00292754 0.00221707 0
-0.0034108 0.00260806 0
-0.00266627 0.00296016 0
-0.00187747 0.00377671 0
-0.000590749 0.00437439 0
-0.000202529 0.00517375 0
0.0036096 0.0140095 0
0.152362 0.287232 0
0.142625 0.346928 0
0.334483 0.638503 0
0.393686 0.48392 0
0.346217 0.584768 0
0.317063 0.527721 0
0.324924 0.389868 0
0.267947 0.465635 0
0.215297 0.40489 0
0.230754 0.283801 0
0.170149 0.343008 0
0.148431 0.27977 0
0.2495 0.162378 0
0.179667 0.205673 0
0.299447 0.126357 0
0.615158 0.0359347 0
0.560533 0.0509579 0
-0.0025712 0.000155449 0
-0.00236531 0.000231569 0
-0.00352503 0.000584075 0
-0.00454388 0.000760586 0
-0.00407057 0.00101438 0
-0.00424836 0.0015394 0
-0.00433478 0.00152825 0
-0.00399431 0.00210329 0
-0.00300484 0.00259882 0
-0.000886932 0.0024343 0
-0.000796292 0.00344113 0
0.00388885 0.00910038 0
0.174502 0.15181 0
0.164541 0.220113 0
0.401501 0.401913 0
0.455464 0.25131 0
0.430012 0.36967 0
0.412993 0.335499 0
0.400378 0.205702 0
0.369576 0.29992 0
0.320191 0.261394 0
0.320417 0.150945 0
0.281608 0.218602 0
0.272311 0.170951 0
0.356464 0.0825306 0
0.312441 0.120273 0
0.42933 0.0695345 0
0.683258 0.0166988 0
0.653327 0.0265752 0
-0.00285394 4.12021e-05 0
-0.00279359 0.000128307 0
-0.00417552 0.000286963 0
-0.00501655 0.000190718 0
-0.00479681 0.000472726 0
-0.00494918 0.000672585 0
-0.00470039 0.000268457 0
-0.00460112 0.000914933 0
-0.0034159 0.00106785 0
-0.000756511 0.000331956 0
-0.000833234 0.00138587 0
0.00454388 0.00355998 0
0.190985 0.014355 0
0.184156 0.0821066 0
0.441426 0.146775 0
0.478715 0.0182328 0
0.471443 0.133735 0
0.456685 0.122458 0
0.423722 0.0183446 0
0.4179 0.111141 0
0.37494 0.0988787 0
0.353724 0.0205246 0
0.343891 0.0851182 0
0.34205 0.0676646 0
0.398494 0.0135747 0
0.385594 0.0473283 0
0.497276 0.0262672 0
0.707942 0.00254967 0
0.698702 0.00989671 0
-0.00282379 -9.29526e-05 0
-0.00292643 -1.68564e-06 0
-0.00437814 -5.07226e-05 0
-0.00496599 -0.000494174 0
-0.00505413 -0.000160682 0
-0.00521203 -0.000254136 0
-0.004558 -0.000945085 0
-0.00472895 -0.000332589 0
-0.00337025 -0.000489883 0
-0.000479455 -0.00173315 0
-0.000594322 -0.000687451 0
0.00504443 -0.00197832 0
0.191564 -0.121234 0
0.193597 -0.0534388 0
0.45225 -0.102167 0
0.460409 -0.208235 0
0.474804 -0.0957327 0
0.454411 -0.0852817 0
0.393507 -0.161218 0
0.414619 -0.0718091 0
0.373841 -0.0576166 0
0.324202 -0.105557 0
0.34651 -0.0431776 0
0.347391 -0.0289266 0
0.375675 -0.0501344 0
0.394191 -0.0182467 0
0.507357 -0.0102962 0
0.696267 -0.009774 0
0.705305 -0.00308017 0
-0.00244078 -0.000251544 0
-0.0027296 -0.000155378 0
-0.00407265 -0.000462174 0
-0.00427662 -0.00116363 0
-0.00468417 -0.000840247 0
-0.00477984 -0.00121126 0
-0.00392532 -0.00219202 0
-0.00429368 -0.00156383 0
-0.00298271 -0.00202071 0
-0.00020087 -0.0038037 0
-0.000344752 -0.0027409 0
0.00499426 -0.00757327 0
0.17595 -0.255195 0
0.186324 -0.188873 0
0.42537 -0.347984 0
0.398457 -0.428067 0
0.435204 -0.319882 0
0.405562 -0.286755 0
0.31535 -0.331694 0
0.360268 -0.24847 0
0.317024 -0.208771 0
0.242438 -0.227526 0
0.28988 -0.166683 0
0.292879 -0.124583 0
0.293292 -0.120138 0
0.342513 -0.0832726 0
0.46301 -0.046315 0
0.649362 -0.0235962 0
0.67608 -0.0153994 0
-0.00165752 -0.000365017 0
-0.00212406 -0.000305528 0
-0.00316628 -0.000850299 0
-0.00295046 -0.00177526 0
-0.00366985 -0.0015021 0
-0.00379936 -0.00217104 0
-0.00283652 -0.00331933 0
-0.00341162 -0.00278474 0
-0.00227172 -0.00345901 0
0.000175386 -0.00555294 0
1.43352e-05 -0.0047379 0
0.00456907 -0.0129822 0
0.144712 -0.373962 0
0.161836 -0.320145 0
0.356436 -0.582789 0
0.287398 -0.603132 0
0.349009 -0.527349 0
0.309685 -0.467402 0
0.199816 -0.458902 0
0.260504 -0.405383 0
0.214716 -0.345514 0
0.120286 -0.336135 0
0.183281 -0.286085 0
0.180348 -0.226653 0
0.15095 -0.203564 0
0.229328 -0.160149 0
0.360428 -0.0903174 0
0.556413 -0.0412597 0
0.607389 -0.0303536 0
-0.00062438 -0.000341619 0
-0.00115557 -0.000378738 0
-0.00174263 -0.00106321 0
-0.00119946 -0.00179796 0
-0.00208126 -0.00191699 0
-0.00226078 -0.00282614 0
-0.0013918 -0.00356712 0
-0.0021216 -0.00366524 0
-0.00142715 -0.00455073 0
0.000716767 -0.00620849 0
0.000401596 -0.00613537 0
0.00465913 -0.0170918 0
0.100626 -0.397031 0
0.124221 -0.409199 0
0.236774 -0.721669 0
0.124367 -0.565113 0
0.211129 -0.628713 0
0.173915 -0.545444 0
0.0726731 -0.419454 0
0.135243 -0.473262 0
0.0973471 -0.414778 0
0.0258953 -0.339121 0
0.0671199 -0.363866 0
0.0521488 -0.315472 0
0.00345904 -0.270163 0
0.077937 -0.243963 0
0.191353 -0.15637 0
0.35051 -0.095232 0
0.475044 -0.053102 0
-0.000198081 -0.000218081 0
-0.000316287 -0.000651558 0
-0.000409301 -0.00123681 0
-0.000484729 -0.00190123 0
-0.000492985 -0.0026872 0
-0.000311242 -0.00335861 0
0.000897234 -0.00476199 0
0.00453137 -0.0134245 0
0.0629057 -0.275979 0
0.0722418 -0.439337 0
0.0487704 -0.36091 0
0.0374089 -0.305447 0
0.028958 -0.268776 0
0.018527 -0.242101 0
0.0104887 -0.23198 0
0.000324985 -0.229609 0
-0.00797976 -0.245717 0
0.0192736 -0.239929 0
0.282259 -0.127654 0
      </DataArray> 
      <DataArray type="Float64" NumberOfComponents="3" Name="Pressure" format="ascii">
0 0 -2.95935
0 0 2.72726
0 0 0
0 0 -6.78807
0 0 -2.92941
0 0 -2.6537
0 0 -2.09209
0 0 -1.30765
0 0 -0.392222
0 0 0.571029
0 0 1.51202
0 0 2.26644
0 0 2.7023
0 0 -2.98654
0 0 -2.81718
0 0 -2.31228
0 0 -1.56938
0 0 -0.674844
0 0 0.286536
0 0 1.23488
0 0 2.03624
0 0 2.59283
0 0 2.7835
0 0 2.70629
0 0 3.01928
0 0 3.87297
0 0 1.76911
0 0 1.08812
0 0 1.26484
0 0 1.62434
0 0 2.0839
0 0 3.30929
0 0 2.67225
0 0 2.76149
0 0 3.25897
0 0 4.0129
0 0 1.40823
0 0 1.11796
0 0 1.39655
0 0 1.76415
0 0 2.4275
0 0 3.64711
0 0 2.30705
0 0 1.54295
0 0 1.00712
0 0 0.634215
0 0 0.356733
0 0 0.106539
0 0 -0.175878
0 0 -0.649203
0 0 -0.929954
0 0 3.53849
0 0 1.76702
0 0 1.15313
0 0 0.736951
0 0 0.434377
0 0 0.180618
0 0 -0.083118
0 0 -0.442355
0 0 -0.936189
0 0 -4.14458
0 0 -2.15645
0 0 -1.20823
0 0 -0.974065
0 0 -0.824399
0 0 -0.927418
0 0 -2.13134
0 0 -3.25878
0 0 -3.17305
0 0 -2.96919
0 0 -4.45402
0 0 -1.70261
0 0 -1.15948
0 0 -0.955121
0 0 -0.873142
0 0 -1.39977
0 0 -3.65935
0 0 -3.3968
0 0 -3.04902
0 0 -2.9444
0 0 -2.90031
0 0 -3.10187
0 0 -3.28357
0 0 -0.65962
0 0 -0.411982
0 0 -0.686984
0 0 -0.897029
0 0 -1.19027
0 0 -1.80331
0 0 -2.54899
0 0 -2.73344
0 0 -2.89117
0 0 -0.327121
0 0 -0.245101
0 0 -0.41105
0 0 -0.545859
0 0 -0.709261
0 0 -0.794453
0 0 -1.93344
0 0 -2.16768
0 0 -2.44486
0 0 -0.325611
0 0 -0.143424
0 0 -0.189048
0 0 -0.256093
0 0 -0.282585
0 0 -0.322797
0 0 -1.1646
0 0 -1.33515
0 0 -1.50382
0 0 -0.268373
0 0 -0.0924082
0 0 -0.0336398
0 0 -0.0198862
0 0 0.0125941
0 0 0.00409917
0 0 -0.264012
0 0 -0.486198
0 0 -0.44026
0 0 -0.0893489
0 0 0.0183076
0 0 0.128945
0 0 0.229394
0 0 0.265379
0 0 0.308859
0 0 0.681997
0 0 0.704541
0 0 0.68379
0 0 0.0715464
0 0 0.142237
0 0 0.322684
0 0 0.473197
0 0 0.5936
0 0 0.611645