<?xml version="1.0"?>
<VTKFile type="UnstructuredGrid">
  <UnstructuredGrid>
  <Piece NumberOfPoints="5265"  NumberOfCells="1280">
    <Points>
      <DataArray type="Float64" NumberOfComponents="3" format="ascii">
0 0 0
0.25 0 0
0.5 0 0
0.75 0 0
1 0 0
1.25 0 0
1.5 0 0
1.75 0 0
2 0 0
2.25 0 0
2.5 0 0
2.75 0 0
3 0 0
3.25 0 0
3.5 0 0
3.75 0 0
4 0 0
4.25 0 0
4.5 0 0
4.75 0 0
5 0 0
5.25 0 0
5.5 0 0
5.75 0 0
6 0 0
6.25 0 0
6.5 0 0
6.75 0 0
7 0 0
7.25 0 0
7.5 0 0
7.75 0 0
8 0 0
8.25 0 0
8.5 0 0
8.75 0 0
9 0 0
9.25 0 0
9.5 0 0
9.75 0 0
10 0 0
10.25 0 0
10.5 0 0
10.75 0 0
11 0 0
11.25 0 0
11.5 0 0
11.75 0 0
12 0 0
12.25 0 0
12.5 0 0
12.75 0 0
13 0 0
13.25 0 0
13.5 0 0
13.75 0 0
14 0 0
14.25 0 0
14.5 0 0
14.75 0 0
15 0 0
15.25 0 0
15.5 0 0
15.75 0 0
16 0 0
16.25 0 0
16.5 0 0
16.75 0 0
17 0 0
17.25 0 0
17.5 0 0
17.75 0 0
18 0 0
18.25 0 0
18.5 0 0
18.75 0 0
19 0 0
19.25 0 0
19.5 0 0
19.75 0 0
20 0 0
0 0.25 0
0.25 0.25 0
0.5 0.25 0
0.75 0.25 0
1 0.25 0
1.25 0.25 0
1.5 0.25 0
1.75 0.25 0
2 0.25 0
2.25 0.25 0
2.5 0.25 0
2.75 0.25 0
3 0.25 0
3.25 0.25 0
3.5 0.25 0
3.75 0.25 0
4 0.25 0
4.25 0.25 0
4.5 0.25 0
4.75 0.25 0
5 0.25 0
5.25 0.25 0
5.5 0.25 0
5.75 0.25 0
6 0.25 0
6.25 0.25 0
6.5 0.25 0
6.75 0.25 0
7 0.25 0
7.25 0.25 0
7.5 0.25 0
7.75 0.25 0
8 0.25 0
8.25 0.25 0
8.5 0.25 0
8.75 0.25 0
9 0.25 0
9.25 0.25 0
9.5 0.25 0
9.75 0.25 0
10 0.25 0
10.25 0.25 0
10.5 0.25 0
10.75 0.25 0
11 0.25 0
11.25 0.25 0
11.5 0.25 0
11.75 0.25 0
12 0.25 0
12.25 0.25 0
12.5 0.25 0
12.75 0.25 0
13 0.25 0
13.25 0.25 0
13.5 0.25 0
13.75 0.25 0
14 0.25 0
14.25 0.25 0
14.5 0.25 0
14.75 0.25 0
15 0.25 0
15.25 0.25 0
15.5 0.25 0
15.75 0.25 0
16 0.25 0
16.25 0.25 0
16.5 0.25 0
16.75 0.25 0
17 0.25 0
17.25 0.25 0
17.5 0.25 0
17.75 0.25 0
18 0.25 0
18.25 0.25 0
18.5 0.25 0
18.75 0.25 0
19 0.25 0
19.25 0.25 0
19.5 0.25 0
19.75 0.25 0
20 0.25 0
0 0.5 0
0.25 0.5 0
0.5 0.5 0
0.75 0.5 0
1 0.5 0
1.25 0.5 0
1.5 0.5 0
1.75 0.5 0
2 0.5 0
2.25 0.5 0
2.5 0.5 0
2.75 0.5 0
3 0.5 0
3.25 0.5 0
3.5 0.5 0
3.75 0.5 0
4 0.5 0
4.25 0.5 0
4.5 0.5 0
4.75 0.5 0
5 0.5 0
5.25 0.5 0
5.5 0.5 0
5.75 0.5 0
6 0.5 0
6.25 0.5 0
6.5 0.5 0
6.75 0.5 0
7 0.5 0
7.25 0.5 0
7.5 0.5 0
7.75 0.5 0
8 0.5 0
8.25 0.5 0
8.5 0.5 0
8.75 0.5 0
9 0.5 0
9.25 0.5 0
9.5 0.5 0
9.75 0.5 0
10 0.5 0
10.25 0.5 0
10.5 0.5 0
10.75 0.5 0
11 0.5 0
11.25 0.5 0
11.5 0.5 0
11.75 0.5 0
12 0.5 0
12.25 0.5 0
12.5 0.5 0
12.75 0.5 0
13 0.5 0
13.25 0.5 0
13.5 0.5 0
13.75 0.5 0
14 0.5 0
14.25 0.5 0
14.5 0.5 0
14.75 0.5 0
15 0.5 0
15.25 0.5 0
15.5 0.5 0
15.75 0.5 0
16 0.5 0
16.25 0.5 0
16.5 0.5 0
16.75 0.5 0
17 0.5 0
17.25 0.5 0
17.5 0.5 0
17.75 0.5 0
18 0.5 0
18.25 0.5 0
18.5 0.5 0
18.75 0.5 0
19 0.5 0
19.25 0.5 0
19.5 0.5 0
19.75 0.5 0
20 0.5 0
0 0.75 0
0.25 0.75 0
0.5 0.75 0
0.75 0.75 0
1 0.75 0
1.25 0.75 0
1.5 0.75 0
1.75 0.75 0
2 0.75 0
2.25 0.75 0
2.5 0.75 0
2.75 0.75 0
3 0.75 0
3.25 0.75 0
3.5 0.75 0
3.75 0.75 0
4 0.75 0
4.25 0.75 0
4.5 0.75 0
4.75 0.75 0
5 0.75 0
5.25 0.75 0
5.5 0.75 0
5.75 0.75 0
6 0.75 0
6.25 0.75 0
6.5 0.75 0
6.75 0.75 0
7 0.75 0
7.25 0.75 0
7.5 0.75 0
7.75 0.75 0
8 0.75 0
8.25 0.75 0
8.5 0.75 0
8.75 0.75 0
9 0.75 0
9.25 0.75 0
9.5 0.75 0
9.75 0.75 0
10 0.75 0
10.25 0.75 0
10.5 0.75 0
10.75 0.75 0
11 0.75 0
11.25 0.75 0
11.5 0.75 0
11.75 0.75 0
12 0.75 0
12.25 0.75 0
12.5 0.75 0
12.75 0.75 0
13 0.75 0
13.25 0.75 0
13.5 0.75 0
13.75 0.75 0
14 0.75 0
14.25 0.75 0
14.5 0.75 0
14.75 0.75 0
15 0.75 0
15.25 0.75 0
15.5 0.75 0
15.75 0.75 0
16 0.75 0
16.25 0.75 0
16.5 0.75 0
16.75 0.75 0
17 0.75 0
17.25 0.75 0
17.5 0.75 0
17.75 0.75 0
18 0.75 0
18.25 0.75 0
18.5 0.75 0
18.75 0.75 0
19 0.75 0
19.25 0.75 0
19.5 0.75 0
19.75 0.75 0
20 0.75 0
0 1 0
0.25 1 0
0.5 1 0
0.75 1 0
1 1 0
1.25 1 0
1.5 1 0
1.75 1 0
2 1 0
2.25 1 0
2.5 1 0
2.75 1 0
3 1 0
3.25 1 0
3.5 1 0
3.75 1 0
4 1 0
4.25 1 0
4.5 1 0
4.75 1 0
5 1 0
5.25 1 0
5.5 1 0
5.75 1 0
6 1 0
6.25 1 0
6.5 1 0
6.75 1 0
7 1 0
7.25 1 0
7.5 1 0
7.75 1 0
8 1 0
8.25 1 0
8.5 1 0
8.75 1 0
9 1 0
9.25 1 0
9.5 1 0
9.75 1 0
10 1 0
10.25 1 0
10.5 1 0
10.75 1 0
11 1 0
11.25 1 0
11.5 1 0
11.75 1 0
12 1 0
12.25 1 0
12.5 1 0
12.75 1 0
13 1 0
13.25 1 0
13.5 1 0
13.75 1 0
14 1 0
14.25 1 0
14.5 1 0
14.75 1 0
15 1 0
15.25 1 0
15.5 1 0
15.75 1 0
16 1 0
16.25 1 0
16.5 1 0
16.75 1 0
17 1 0
17.25 1 0
17.5 1 0
17.75 1 0
18 1 0
18.25 1 0
18.5 1 0
18.75 1 0
19 1 0
19.25 1 0
19.5 1 0
19.75 1 0
20 1 0
0 1.25 0
0.25 1.25 0
0.5 1.25 0
0.75 1.25 0
1 1.25 0
1.25 1.25 0
1.5 1.25 0
1.75 1.25 0
2 1.25 0
2.25 1.25 0
2.5 1.25 0
2.75 1.25 0
3 1.25 0
3.25 1.25 0
3.5 1.25 0
3.75 1.25 0
4 1.25 0
4.25 1.25 0
4.5 1.25 0
4.75 1.25 0
5 1.25 0
5.25 1.25 0
5.5 1.25 0
5.75 1.25 0
6 1.25 0
6.25 1.25 0
6.5 1.25 0
6.75 1.25 0
7 1.25 0
7.25 1.25 0
7.5 1.25 0
7.75 1.25 0
8 1.25 0
8.25 1.25 0
8.5 1.25 0
8.75 1.25 0
9 1.25 0
9.25 1.25 0
9.5 1.25 0
9.75 1.25 0
10 1.25 0
10.25 1.25 0
10.5 1.25 0
10.75 1.25 0
11 1.25 0
11.25 1.25 0
11.5 1.25 0
11.75 1.25 0
12 1.25 0
12.25 1.25 0
12.5 1.25 0
12.75 1.25 0
13 1.25 0
13.25 1.25 0
13.5 1.25 0
13.75 1.25 0
14 1.25 0
14.25 1.25 0
14.5 1.25 0
14.75 1.25 0
15 1.25 0
15.25 1.25 0
15.5 1.25 0
15.75 1.25 0
16 1.25 0
16.25 1.25 0
16.5 1.25 0
16.75 1.25 0
17 1.25 0
17.25 1.25 0
17.5 1.25 0
17.75 1.25 0
18 1.25 0
18.25 1.25 0
18.5 1.25 0
18.75 1.25 0
19 1.25 0
19.25 1.25 0
19.5 1.25 0
19.75 1.25 0
20 1.25 0
0 1.5 0
0.25 1.5 0
0.5 1.5 0
0.75 1.5 0
1 1.5 0
1.25 1.5 0
1.5 1.5 0
1.75 1.5 0
2 1.5 0
2.25 1.5 0
2.5 1.5 0
2.75 1.5 0
3 1.5 0
3.25 1.5 0
3.5 1.5 0
3.75 1.5 0
4 1.5 0
4.25 1.5 0
4.5 1.5 0
4.75 1.5 0
5 1.5 0
5.25 1.5 0
5.5 1.5 0
5.75 1.5 0
6 1.5 0
6.25 1.5 0
6.5 1.5 0
6.75 1.5 0
7 1.5 0
7.25 1.5 0
7.5 1.5 0
7.75 1.5 0
8 1.5 0
8.25 1.5 0
8.5 1.5 0
8.75 1.5 0
9 1.5 0
9.25 1.5 0
9.5 1.5 0
9.75 1.5 0
10 1.5 0
10.25 1.5 0
10.5 1.5 0
10.75 1.5 0
11 1.5 0
11.25 1.5 0
11.5 1.5 0
11.75 1.5 0
12 1.5 0
12.25 1.5 0
12.5 1.5 0
12.75 1.5 0
13 1.5 0
13.25 1.5 0
13.5 1.5 0
13.75 1.5 0
14 1.5 0
14.25 1.5 0
14.5 1.5 0
14.75 1.5 0
15 1.5 0
15.25 1.5 0
15.5 1.5 0
15.75 1.5 0
16 1.5 0
16.25 1.5 0
16.5 1.5 0
16.75 1.5 0
17 1.5 0
17.25 1.5 0
17.5 1.5 0
17.75 1.5 0
18 1.5 0
18.25 1.5 0
18.5 1.5 0
18.75 1.5 0
19 1.5 0
19.25 1.5 0
19.5 1.5 0
19.75 1.5 0
20 1.5 0
0 1.75 0
0.25 1.75 0
0.5 1.75 0
0.75 1.75 0
1 1.75 0
1.25 1.75 0
1.5 1.75 0
1.75 1.75 0
2 1.75 0
2.25 1.75 0
2.5 1.75 0
2.75 1.75 0
3 1.75 0
3.25 1.75 0
3.5 1.75 0
3.75 1.75 0
4 1.75 0
4.25 1.75 0
4.5 1.75 0
4.75 1.75 0
5 1.75 0
5.25 1.75 0
5.5 1.75 0
5.75 1.75 0
6 1.75 0
6.25 1.75 0
6.5 1.75 0
6.75 1.75 0
7 1.75 0
7.25 1.75 0
7.5 1.75 0
7.75 1.75 0
8 1.75 0
8.25 1.75 0
8.5 1.75 0
8.75 1.75 0
9 1.75 0
9.25 1.75 0
9.5 1.75 0
9.75 1.75 0
10 1.75 0
10.25 1.75 0
10.5 1.75 0
10.75 1.75 0
11 1.75 0
11.25 1.75 0
11.5 1.75 0
11.75 1.75 0
12 1.75 0
12.25 1.75 0
12.5 1.75 0
12.75 1.75 0
13 1.75 0
13.25 1.75 0
13.5 1.75 0
13.75 1.75 0
14 1.75 0
14.25 1.75 0
14.5 1.75 0
14.75 1.75 0
15 1.75 0
15.25 1.75 0
15.5 1.75 0
15.75 1.75 0
16 1.75 0
16.25 1.75 0
16.5 1.75 0
16.75 1.75 0
17 1.75 0
17.25 1.75 0
17.5 1.75 0
17.75 1.75 0
18 1.75 0
18.25 1.75 0
18.5 1.75 0
18.75 1.75 0
19 1.75 0
19.25 1.75 0
19.5 1.75 0
19.75 1.75 0
20 1.75 0
0 2 0
0.25 2 0
0.5 2 0
0.75 2 0
1 2 0
1.25 2 0
1.5 2 0
1.75 2 0
2 2 0
2.25 2 0
2.5 2 0
2.75 2 0
3 2 0
3.25 2 0
3.5 2 0
3.75 2 0
4 2 0
4.25 2 0
4.5 2 0
4.75 2 0
5 2 0
5.25 2 0
5.5 2 0
5.75 2 0
6 2 0
6.25 2 0
6.5 2 0
6.75 2 0
7 2 0
7.25 2 0
7.5 2 0
7.75 2 0
8 2 0
8.25 2 0
8.5 2 0
8.75 2 0
9 2 0
9.25 2 0
9.5 2 0
9.75 2 0
10 2 0
10.25 2 0
10.5 2 0
10.75 2 0
11 2 0
11.25 2 0
11.5 2 0
11.75 2 0
12 2 0
12.25 2 0
12.5 2 0
12.75 2 0
13 2 0
13.25 2 0
13.5 2 0
13.75 2 0
14 2 0
14.25 2 0
14.5 2 0
14.75 2 0
15 2 0
15.25 2 0
15.5 2 0
15.75 2 0
16 2 0
16.25 2 0
16.5 2 0
16.75 2 0
17 2 0
17.25 2 0
17.5 2 0
17.75 2 0
18 2 0
18.25 2 0
18.5 2 0
18.75 2 0
19 2 0
19.25 2 0
19.5 2 0
19.75 2 0
20 2 0
0 2.25 0
0.25 2.25 0
0.5 2.25 0
0.75 2.25 0
1 2.25 0
1.25 2.25 0
1.5 2.25 0
1.75 2.25 0
2 2.25 0
2.25 2.25 0
2.5 2.25 0
2.75 2.25 0
3 2.25 0
3.25 2.25 0
3.5 2.25 0
3.75 2.25 0
4 2.25 0
4.25 2.25 0
4.5 2.25 0
4.75 2.25 0
5 2.25 0
5.25 2.25 0
5.5 2.25 0
5.75 2.25 0
6 2.25 0
6.25 2.25 0
6.5 2.25 0
6.75 2.25 0
7 2.25 0
7.25 2.25 0
7.5 2.25 0
7.75 2.25 0
8 2.25 0
8.25 2.25 0
8.5 2.25 0
8.75 2.25 0
9 2.25 0
9.25 2.25 0
9.5 2.25 0
9.75 2.25 0
10 2.25 0
10.25 2.25 0
10.5 2.25 0
10.75 2.25 0
11 2.25 0
11.25 2.25 0
11.5 2.25 0
11.75 2.25 0
12 2.25 0
12.25 2.25 0
12.5 2.25 0
12.75 2.25 0
13 2.25 0
13.25 2.25 0
13.5 2.25 0
13.75 2.25 0
14 2.25 0
14.25 2.25 0
14.5 2.25 0
14.75 2.25 0
15 2.25 0
15.25 2.25 0
15.5 2.25 0
15.75 2.25 0
16 2.25 0
16.25 2.25 0
16.5 2.25 0
16.75 2.25 0
17 2.25 0
17.25 2.25 0
17.5 2.25 0
17.75 2.25 0
18 2.25 0
18.25 2.25 0
18.5 2.25 0
18.75 2.25 0
19 2.25 0
19.25 2.25 0
19.5 2.25 0
19.75 2.25 0
20 2.25 0
0 2.5 0
0.25 2.5 0
0.5 2.5 0
0.75 2.5 0
1 2.5 0
1.25 2.5 0
1.5 2.5 0
1.75 2.5 0
2 2.5 0
2.25 2.5 0
2.5 2.5 0
2.75 2.5 0
3 2.5 0
3.25 2.5 0
3.5 2.5 0
3.75 2.5 0
4 2.5 0
4.25 2.5 0
4.5 2.5 0
4.75 2.5 0
5 2.5 0
5.25 2.5 0
5.5 2.5 0
5.75 2.5 0
6 2.5 0
6.25 2.5 0
6.5 2.5 0
6.75 2.5 0
7 2.5 0
7.25 2.5 0
7.5 2.5 0
7.75 2.5 0
8 2.5 0
8.25 2.5 0
8.5 2.5 0
8.75 2.5 0
9 2.5 0
9.25 2.5 0
9.5 2.5 0
9.75 2.5 0
10 2.5 0
10.25 2.5 0
10.5 2.5 0
10.75 2.5 0
11 2.5 0
11.25 2.5 0
11.5 2.5 0
11.75 2.5 0
12 2.5 0
12.25 2.5 0
12.5 2.5 0
12.75 2.5 0
13 2.5 0
13.25 2.5 0
13.5 2.5 0
13.75 2.5 0
14 2.5 0
14.25 2.5 0
14.5 2.5 0
14.75 2.5 0
15 2.5 0
15.25 2.5 0
15.5 2.5 0
15.75 2.5 0
16 2.5 0
16.25 2.5 0
16.5 2.5 0
16.75 2.5 0
17 2.5 0
17.25 2.5 0
17.5 2.5 0
17.75 2.5 0
18 2.5 0
18.25 2.5 0
18.5 2.5 0
18.75 2.5 0
19 2.5 0
19.25 2.5 0
19.5 2.5 0
19.75 2.5 0
20 2.5 0
0 2.75 0
0.25 2.75 0
0.5 2.75 0
0.75 2.75 0
1 2.75 0
1.25 2.75 0
1.5 2.75 0
1.75 2.75 0
2 2.75 0
2.25 2.75 0
2.5 2.75 0
2.75 2.75 0
3 2.75 0
3.25 2.75 0
3.5 2.75 0
3.75 2.75 0
4 2.75 0
4.25 2.75 0
4.5 2.75 0
4.75 2.75 0
5 2.75 0
5.25 2.75 0
5.5 2.75 0
5.75 2.75 0
6 2.75 0
6.25 2.75 0
6.5 2.75 0
6.75 2.75 0
7 2.75 0
7.25 2.75 0
7.5 2.75 0
7.75 2.75 0
8 2.75 0
8.25 2.75 0
8.5 2.75 0
8.75 2.75 0
9 2.75 0
9.25 2.75 0
9.5 2.75 0
9.75 2.75 0
10 2.75 0
10.25 2.75 0
10.5 2.75 0
10.75 2.75 0
11 2.75 0
11.25 2.75 0
11.5 2.75 0
[...]
    <PointData>
      <DataArray type="Float64" NumberOfComponents="3" Name="Velocity" format="ascii">
1 0 0
1.00003 0 0
1.00016 0 0
1.00038 0 0
1.00066 0 0
1.00097 0 0
1.00127 0 0
1.00156 0 0
1.00187 0 0
1.00219 0 0
1.00251 0 0
1.00285 0 0
1.0032 0 0
1.00356 0 0
1.00393 0 0
1.00431 0 0
1.0047 0 0
1.0051 0 0
1.00551 0 0
1.00592 0 0
1.00633 0 0
1.00675 0 0
1.00716 0 0
1.00756 0 0
1.00795 0 0
1.00833 0 0
1.00869 0 0
1.00902 0 0
1.00932 0 0
1.00959 0 0
1.00981 0 0
1.01 0 0
1.01013 0 0
1.01022 0 0
1.01025 0 0
1.01024 0 0
1.01019 0 0
1.01008 0 0
1.00993 0 0
1.00973 0 0
1.00949 0 0
1.00921 0 0
1.0089 0 0
1.00857 0 0
1.00822 0 0
1.00785 0 0
1.00747 0 0
1.00709 0 0
1.0067 0 0
1.00632 0 0
1.00594 0 0
1.00557 0 0
1.00521 0 0
1.00485 0 0
1.00452 0 0
1.00419 0 0
1.00389 0 0
1.0036 0 0
1.00333 0 0
1.00307 0 0
1.00283 0 0
1.00261 0 0
1.0024 0 0
1.00221 0 0
1.00204 0 0
1.00188 0 0
1.00173 0 0
1.00159 0 0
1.00147 0 0
1.00136 0 0
1.00126 0 0
1.00117 0 0
1.00109 0 0
1.00101 0 0
1.00095 0 0
1.0009 0 0
1.00085 0 0
1.00081 0 0
1.00078 0 0
1.00076 0 0
1.00074 0 0
1 0 0
1.00003 -7.05237e-05 0
1.00016 -0.000177237 0
1.00038 -0.000269871 0
1.00066 -0.00029816 0
1.00097 -0.00029574 0
1.00126 -0.000296247 0
1.00156 -0.000300927 0
1.00186 -0.000311029 0
1.00218 -0.000322659 0
1.00251 -0.000331922 0
1.00284 -0.000341073 0
1.00319 -0.000352366 0
1.00355 -0.000364293 0
1.00392 -0.000375344 0
1.0043 -0.000385693 0
1.00469 -0.000395511 0
1.00509 -0.000404033 0
1.0055 -0.000410491 0
1.00591 -0.000414581 0
1.00633 -0.000415998 0
1.00675 -0.000414483 0
1.00716 -0.000409776 0
1.00757 -0.000401152 0
1.00797 -0.000387883 0
1.00835 -0.000369409 0
1.0087 -0.000345167 0
1.00904 -0.000316159 0
1.00934 -0.000283385 0
1.0096 -0.000246846 0
1.00983 -0.000206544 0
1.01002 -0.000162252 0
1.01016 -0.000113745 0
1.01025 -6.30751e-05 0
1.01029 -1.22961e-05 0
1.01028 3.75633e-05 0
1.01021 8.54744e-05 0
1.0101 0.000131795 0
1.00994 0.000176884 0
1.00974 0.000219541 0
1.0095 0.000258566 0
1.00923 0.000292719 0
1.00892 0.000320758 0
1.00859 0.000343403 0
1.00823 0.000361371 0
1.00786 0.000374743 0
1.00748 0.000383598 0
1.00709 0.000387979 0
1.0067 0.000387928 0
1.00631 0.000384148 0
1.00593 0.000377341 0
1.00556 0.000368057 0
1.00519 0.000356845 0
1.00484 0.000343891 0
1.00451 0.000329381 0
1.00418 0.000313734 0
1.00388 0.000297366 0
1.00359 0.000280589 0
1.00332 0.000263714 0
1.00306 0.000246904 0
1.00282 0.000230325 0
1.0026 0.000214103 0
1.0024 0.000198367 0
1.00221 0.000183192 0
1.00203 0.000168649 0
1.00187 0.000154757 0
1.00172 0.000141532 0
1.00159 0.000128974 0
1.00146 0.000117085 0
1.00135 0.000105833 0
1.00125 9.51883e-05 0
1.00116 8.51221e-05 0
1.00108 7.56049e-05 0
1.00101 6.65778e-05 0
1.00095 5.79821e-05 0
1.00089 4.97921e-05 0
1.00085 4.19819e-05 0
1.00081 3.44651e-05 0
1.00078 2.71554e-05 0
1.00076 2.00701e-05 0
1.00074 1.32268e-05 0
1 0 0
1.00003 -0.000140739 0
1.00016 -0.000353583 0
1.00038 -0.00053833 0
1.00066 -0.000594781 0
1.00096 -0.000590029 0
1.00125 -0.000591167 0
1.00155 -0.000600672 0
1.00185 -0.000621019 0
1.00217 -0.000644436 0
1.00249 -0.000663149 0
1.00283 -0.000681678 0
1.00317 -0.000704542 0
1.00353 -0.000728744 0
1.0039 -0.000751283 0
1.00428 -0.000772374 0
1.00468 -0.00079223 0
1.00508 -0.000809635 0
1.00549 -0.000823374 0
1.00591 -0.000832694 0
1.00633 -0.000836843 0
1.00675 -0.000834448 0
1.00717 -0.000824133 0
1.00759 -0.000805453 0
1.00799 -0.000777961 0
1.00837 -0.000741199 0
1.00874 -0.000694709 0
1.00908 -0.000638493 0
1.00939 -0.000572553 0
1.00967 -0.000497809 0
1.0099 -0.000415178 0
1.01009 -0.000325676 0
1.01023 -0.000230318 0
1.01032 -0.000130589 0
1.01036 -2.79755e-05 0
1.01035 7.49265e-05 0
1.01029 0.000175521 0
1.01017 0.00027169 0
1.01001 0.000361317 0
1.0098 0.00044406 0
1.00955 0.000519573 0
1.00927 0.000586552 0
1.00896 0.000643694 0
1.00862 0.000690683 0
1.00825 0.000727205 0
1.00788 0.000753758 0
1.00749 0.000770844 0
1.0071 0.000779217 0
1.0067 0.000779632 0
1.00631 0.00077271 0
1.00592 0.000759075 0
1.00554 0.000739909 0
1.00518 0.000716392 0
1.00482 0.000689374 0
1.00448 0.000659705 0
1.00416 0.000628055 0
1.00385 0.000595095 0
1.00356 0.000561351 0
1.00329 0.000527349 0
1.00304 0.000493495 0
1.0028 0.0004602 0
1.00258 0.000427679 0
1.00237 0.00039615 0
1.00218 0.000365753 0
1.00201 0.000336631 0
1.00185 0.000308825 0
1.0017 0.000282378 0
1.00157 0.000257281 0
1.00145 0.000233526 0
1.00134 0.000211051 0
1.00124 0.000189797 0
1.00115 0.000169705 0
1.00107 0.000150715 0
1.001 0.000132708 0
1.00094 0.000115565 0
1.00088 9.92338e-05 0
1.00084 8.36633e-05 0
1.0008 6.86797e-05 0
1.00077 5.41096e-05 0
1.00075 3.99862e-05 0
1.00073 2.63424e-05 0
1 0 0
1.00003 -0.000210265 0
1.00016 -0.000528089 0
1.00037 -0.000803957 0
1.00065 -0.000888354 0
1.00095 -0.000881464 0
1.00124 -0.000883472 0
1.00153 -0.000898047 0
1.00183 -0.000928858 0
1.00214 -0.000964343 0
1.00247 -0.000992939 0
1.0028 -0.00102136 0
1.00315 -0.00105633 0
1.0035 -0.00109339 0
1.00387 -0.00112811 0
1.00426 -0.00116075 0
1.00465 -0.00119154 0
1.00506 -0.00121878 0
1.00548 -0.00124078 0
1.0059 -0.00125623 0
1.00633 -0.00126386 0
1.00676 -0.00126133 0
1.00719 -0.00124629 0
1.00761 -0.00121846 0
1.00803 -0.00117756 0
1.00842 -0.00112315 0
1.0088 -0.00105483 0
1.00916 -0.000971409 0
1.00948 -0.000871708 0
1.00977 -0.000757492 0
1.01001 -0.000630525 0
1.01021 -0.000493606 0
1.01035 -0.000349534 0
1.01044 -0.000199401 0
1.01049 -4.42969e-05 0
1.01048 0.000112496 0
1.01041 0.000267695 0
1.0103 0.000416241 0
1.01012 0.000553076 0
1.0099 0.000678057 0
1.00964 0.00079104 0
1.00934 0.000891083 0
1.00902 0.000977241 0
1.00866 0.00104836 0
1.00829 0.00110329 0
1.0079 0.00114265 0
1.0075 0.00116706 0
1.0071 0.00117826 0
1.0067 0.001178 0
1.0063 0.00116693 0
1.0059 0.00114571 0
1.00552 0.001116 0
1.00515 0.00107946 0
1.00479 0.00103763 0
1.00445 0.000992044 0
1.00412 0.000943684 0
1.00381 0.000893544 0
1.00352 0.000842344 0
1.00325 0.000790805 0
1.00299 0.000739568 0
1.00276 0.000689275 0
1.00254 0.000640235 0
1.00233 0.000592758 0
1.00215 0.00054704 0
1.00197 0.000503277 0
1.00181 0.00046153 0
1.00167 0.000421861 0
1.00154 0.000384248 0
1.00142 0.000348671 0
1.00131 0.000315036 0
1.00121 0.000283245 0
1.00112 0.000253207 0
1.00104 0.000224832 0
1.00098 0.000197938 0
1.00091 0.000172344 0
1.00086 0.000147972 0
1.00082 0.000124741 0
1.00078 0.000102393 0
1.00075 8.06645e-05 0
1.00073 5.96048e-05 0
1.00071 3.92605e-05 0
1 0 0
1.00003 -0.000278721 0
1.00016 -0.000699806 0
1.00037 -0.00106533 0
1.00064 -0.00117737 0
1.00093 -0.00116864 0
1.00122 -0.00117187 0
1.0015 -0.00119187 0
1.0018 -0.00123344 0
1.00211 -0.00128139 0
1.00243 -0.00132055 0
1.00276 -0.00135967 0
1.0031 -0.00140752 0
1.00346 -0.00145828 0
1.00383 -0.00150613 0
1.00422 -0.00155151 0
1.00462 -0.00159482 0
1.00503 -0.00163346 0
1.00545 -0.00166483 0
1.00589 -0.00168707 0
1.00632 -0.00169837 0
1.00677 -0.00169655 0
1.00721 -0.00167946 0
1.00765 -0.00164572 0
1.00808 -0.00159399 0
1.0085 -0.00152306 0
1.0089 -0.00143174 0
1.00927 -0.00131931 0
1.00961 -0.00118505 0
1.00991 -0.0010305 0
1.01016 -0.000857207 0
1.01037 -0.000669375 0
1.01053 -0.00047121 0
1.01063 -0.000266371 0
1.01067 -5.85192e-05 0
1.01065 0.000150678 0
1.01058 0.000359554 0
1.01046 0.000562007 0
1.01028 0.000751936 0
1.01005 0.000926033 0
1.00978 0.00108099 0
1.00946 0.00121589 0
1.00911 0.00132983 0
1.00874 0.00142296 0
1.00835 0.00149543 0
1.00794 0.00154703 0
1.00752 0.00157756 0
1.0071 0.00158965 0
1.00668 0.00158591 0
1.00627 0.00156805 0
1.00587 0.00153776 0
1.00548 0.00149678 0
1.0051 0.00144689 0
1.00474 0.00138985 0
1.00439 0.00132747 0
1.00406 0.00126134 0
1.00375 0.00119307 0
1.00346 0.00112363 0
1.00319 0.00105398 0
1.00294 0.000984919 0
1.0027 0.000917201 0
1.00248 0.00085128 0
1.00228 0.000787605 0
1.00209 0.000726408 0
1.00192 0.00066792 0
1.00177 0.000612199 0
1.00162 0.000559303 0
1.00149 0.000509202 0
1.00138 0.00046187 0
1.00127 0.000417165 0
1.00117 0.000374947 0
1.00109 0.000335087 0
1.00101 0.000297457 0
1.00094 0.000261814 0
1.00089 0.000227916 0
1.00083 0.000195653 0
1.00079 0.000164914 0
1.00076 0.000135352 0
1.00073 0.000106622 0
1.0007 7.87825e-05 0
1.00069 5.1895e-05 0
1 0 0
1.00003 -0.000345706 0
1.00015 -0.000867723 0
1.00036 -0.00132091 0
1.00062 -0.00146014 0
1.00091 -0.00144993 0
1.00119 -0.00145483 0
1.00147 -0.00148071 0
1.00176 -0.00153346 0
1.00206 -0.00159444 0
1.00238 -0.00164501 0
1.00271 -0.00169583 0
1.00305 -0.00175754 0
1.00341 -0.00182316 0
1.00378 -0.0018857 0
1.00417 -0.00194553 0
1.00457 -0.00200303 0
1.00499 -0.00205486 0
1.00542 -0.00209765 0
1.00586 -0.00212891 0
1.00631 -0.00214612 0
1.00677 -0.00214737 0
1.00723 -0.00213074 0
1.0077 -0.00209317 0
1.00815 -0.00203162 0
1.0086 -0.00194405 0
1.00902 -0.00182843 0
1.00941 -0.00168538 0
1.00977 -0.00151554 0
1.01009 -0.00132024 0
1.01036 -0.00110082 0
1.01059 -0.000860917 0
1.01077 -0.000604145 0
1.01087 -0.000338144 0
1.01092 -7.05525e-05 0
1.01089 0.000196807 0
1.01081 0.000462113 0
1.01067 0.000719657 0
1.01048 0.000963734 0
1.01024 0.00118863 0
1.00995 0.00138863 0
1.00961 0.00156126 0
1.00924 0.00170407 0
1.00884 0.00181905 0
1.00842 0.00190825 0
1.00799 0.00197108 0
1.00755 0.00200701 0
1.0071 0.002019 0
1.00667 0.00201002 0
1.00624 0.00198304 0
1.00582 0.00194101 0
1.00542 0.00188623 0
1.00503 0.00182097 0
1.00466 0.00174709 0
1.00431 0.00166645 0
1.00398 0.00158125 0
1.00367 0.00149366 0
1.00338 0.00140496 0
1.00311 0.00131641 0
1.00286 0.00122888 0
1.00262 0.00114324 0
1.00241 0.00106007 0
1.00221 0.000979916 0
1.00203 0.000903054 0
1.00186 0.000829742 0
1.00171 0.000760017 0
1.00157 0.00069392 0
1.00144 0.000631403 0
1.00132 0.000572419 0
1.00122 0.000516777 0
1.00113 0.000464287 0
1.00104 0.000414777 0
1.00097 0.000368075 0
1.00091 0.000323876 0
1.00085 0.000281872 0
1.0008 0.00024192 0
1.00076 0.000203875 0
1.00072 0.000167306 0
1.0007 0.00013178 0
1.00067 9.73685e-05 0
1.00066 6.41426e-05 0
1 0 0
1.00003 -0.000410823 0
1.00015 -0.00103083 0
1.00034 -0.00156917 0
1.0006 -0.00173497 0
1.00088 -0.00172369 0
1.00115 -0.00173081 0
1.00142 -0.00176318 0
1.00171 -0.00182765 0
1.00201 -0.00190234 0
1.00232 -0.00196535 0
1.00264 -0.00202906 0
1.00298 -0.00210584 0
1.00334 -0.00218783 0
1.00371 -0.00226717 0
1.0041 -0.00234366 0
1.00451 -0.00241713 0
1.00493 -0.00248418 0
1.00538 -0.00254139 0
1.00583 -0.0025854 0
1.0063 -0.00261287 0
1.00679 -0.00262105 0
1.00727 -0.00260723 0
1.00776 -0.00256672 0
1.00824 -0.00249482 0
1.00871 -0.0023893 0
1.00915 -0.0022479 0
1.00958 -0.00207279 0
1.00996 -0.00186612 0
1.01031 -0.00163011 0
1.01062 -0.00136697 0
1.01087 -0.00107616 0
1.01106 -0.000757141 0
1.01118 -0.000421366 0
1.01123 -8.03067e-05 0
1.01121 0.000258218 0
1.01111 0.000586388 0
1.01095 0.000899864 0
1.01073 0.00119431 0
1.01046 0.00146648 0
1.01014 0.00171316 0
1.00978 0.00192747 0
1.00938 0.00210254 0
1.00895 0.00224124 0
1.0085 0.0023464 0
1.00804 0.00241902 0
1.00758 0.00246008 0
1.00712 0.00247194 0
1.00666 0.00245697 0
1.00621 0.00241885 0
1.00577 0.00236129 0
1.00535 0.00228833 0
1.00496 0.00220403 0
1.00458 0.00211039 0
1.00422 0.00200945 0
1.00389 0.00190362 0
1.00357 0.00179532 0
1.00328 0.00168612 0
1.00301 0.0015776 0
1.00276 0.00147077 0
1.00253 0.00136666 0
1.00232 0.00126584 0
1.00212 0.00116892 0
1.00194 0.00107618 0
1.00178 0.000987921 0
1.00163 0.000904168 0
1.0015 0.000824929 0
1.00137 0.000750109 0
1.00126 0.000679615 0
1.00116 0.000613207 0
1.00107 0.000550646 0
1.00099 0.000491709 0
1.00092 0.000436172 0
1.00086 0.000383661 0
1.0008 0.000333802 0
1.00076 0.000286414 0
1.00072 0.000241319 0
1.00068 0.000198 0
1.00066 0.000155938 0
1.00064 0.000115212 0
1.00062 7.58998e-05 0
1 0 0
1.00002 -0.000473645 0
1.00014 -0.00118803 0
1.00033 -0.0018084 0
1.00058 -0.002 0
1.00085 -0.00198815 0
1.0011 -0.00199817 0
1.00137 -0.00203771 0
1.00164 -0.00211443 0
1.00194 -0.00220354 0
1.00224 -0.00228024 0
1.00256 -0.00235831 0
1.00289 -0.00245153 0
1.00325 -0.00255157 0
1.00362 -0.00265013 0
1.00402 -0.00274595 0
1.00443 -0.00283776 0
1.00486 -0.00292272 0
1.00532 -0.00299801 0
1.00579 -0.00305877 0
1.00628 -0.00310012 0
1.00679 -0.00311821 0
1.00731 -0.00310915 0
1.00782 -0.00306724 0
1.00833 -0.00298675 0
1.00883 -0.00286607 0
1.00931 -0.00270361 0
1.00978 -0.00249962 0
1.01021 -0.00225437 0
1.0106 -0.00197216 0
1.01093 -0.00165731 0
1.0112 -0.00130811 0
1.01141 -0.00092283 0
1.01155 -0.000514433 0
1.01161 -9.58679e-05 0
1.01159 0.000320781 0
1.01148 0.00072343 0
1.0113 0.00110452 0
1.01105 0.00145647 0
1.01073 0.00177935 0
1.01038 0.0020732 0
1.00998 0.00232866 0
1.00954 0.00253641 0
1.00908 0.00269886 0
1.00859 0.00281846 0
1.0081 0.00289792 0
1.00761 0.00293996 0
1.00711 0.00294763 0
1.00663 0.00292397 0
1.00616 0.00287263 0
1.00571 0.00279727 0
1.00527 0.00270353 0
1.00486 0.00259708 0
1.00447 0.00248063 0
1.00411 0.00235693 0
1.00377 0.00222848 0
1.00345 0.00209781 0
1.00316 0.00196672 0
1.00289 0.00183702 0
1.00265 0.00170992 0
1.00242 0.00158662 0
1.00221 0.00146768 0
1.00202 0.00135365 0
1.00184 0.00124484 0
1.00169 0.00114155 0
1.00154 0.00104376 0
1.00141 0.000951474 0
1.00129 0.000864506 0
1.00119 0.000782697 0
1.00109 0.000705753 0
1.00101 0.00063338 0
1.00093 0.000565295 0
1.00086 0.000501216 0
1.0008 0.000440696 0
1.00075 0.000383288 0
1.00071 0.000328776 0
1.00067 0.000276941 0
1.00064 0.000227182 0
1.00061 0.000178895 0
1.00059 0.000132164 0
1.00058 8.70705e-05 0
1 0 0
1.00002 -0.000533748 0
1.00013 -0.0013382 0
1.00031 -0.0020369 0
1.00055 -0.00225339 0
1.0008 -0.00224154 0
1.00105 -0.00225526 0
1.0013 -0.00230275 0
1.00157 -0.00239222 0
1.00185 -0.00249648 0
1.00215 -0.00258836 0
1.00246 -0.00268254 0
1.00279 -0.00279374 0
1.00314 -0.00291371 0
1.00351 -0.00303421 0
1.00391 -0.00315242 0
1.00433 -0.00326553 0
1.00477 -0.00337181 0
1.00524 -0.00346951 0
1.00573 -0.00355119 0
1.00624 -0.0036094 0
1.00677 -0.00363947 0
1.00731 -0.00363673 0
1.00786 -0.00359561 0
1.00841 -0.00351055 0
1.00896 -0.00338164 0
1.0095 -0.003209 0
1.01002 -0.00298395 0
1.01051 -0.00269784 0
1.01095 -0.00235843 0
1.01132 -0.0019735 0
1.01162 -0.00154973 0
1.01183 -0.00109384 0
1.01197 -0.000615738 0
1.01204 -0.000125322 0
1.01203 0.000370366 0
1.01192 0.000864292 0
1.01174 0.0013355 0
1.01145 0.00176304 0
1.0111 0.00214697 0
1.01069 0.00248734 0
1.01023 0.002779 0
1.00974 0.00301679 0
1.00922 0.00320127 0
1.00868 0.00333301 0
1.00814 0.00341492 0
1.0076 0.00344987 0
1.00707 0.0034452 0
1.00656 0.00340825 0
1.00607 0.00334155 0
1.0056 0.00324765 0
1.00515 0.00313227 0
1.00473 0.00300114 0
1.00434 0.00285869 0
1.00397 0.00270937 0
1.00363 0.00255588 0
1.00331 0.00240092 0
1.00302 0.00224637 0
1.00276 0.00209413 0
1.00251 0.00194563 0
1.00229 0.0018023 0
1.00208 0.00166465 0
1.0019 0.00153317 0
1.00173 0.0014081 0
1.00158 0.0012897 0
1.00144 0.00117792 0
1.00132 0.0010727 0
1.0012 0.00097378 0
1.0011 0.000880905 0
1.00101 0.000793713 0
1.00093 0.000711845 0
1.00086 0.000634949 0
1.0008 0.000562676 0
1.00074 0.000494505 0
1.00069 0.000429915 0
1.00065 0.000368646 0
1.00062 0.000310435 0
1.00059 0.0002546 0
1.00056 0.000200454 0
1.00054 0.000148079 0
1.00053 9.75589e-05 0
1 0 0
1.00002 -0.000590612 0
1.00013 -0.00148009 0
1.0003 -0.00225276 0
1.00051 -0.00249296 0
1.00076 -0.00248172 0
1.00099 -0.00250007 0
1.00123 -0.00255635 0
1.00148 -0.00265888 0
1.00175 -0.00277894 0
1.00204 -0.00288778 0
1.00234 -0.00300017 0
1.00266 -0.00313087 0
1.00301 -0.00327263 0
1.00338 -0.00341815 0
1.00378 -0.00356244 0
1.0042 -0.00370045 0
1.00465 -0.00383216 0
1.00514 -0.00395755 0
1.00565 -0.00406531 0
1.00618 -0.00414413 0
1.00674 -0.00419098 0
1.00731 -0.00420284 0
1.00791 -0.00417129 0
1.00851 -0.00408789 0
1.00913 -0.00395366 0
1.00973 -0.00376965 0
1.01031 -0.00352023 0
1.01086 -0.00318975 0
1.01135 -0.00278943 0
1.01177 -0.00233044 0
1.0121 -0.00182505 0
1.01235 -0.00128547 0
1.0125 -0.000723688 0
1.01257 -0.000151642 0
1.01254 0.000430202 0
1.01243 0.00102138 0
1.01223 0.00158971 0
1.01192 0.00210298 0
1.01152 0.00255839 0
1.01105 0.00295313 0
1.01053 0.00328533 0
1.00997 0.00355309 0
1.00939 0.00375762 0
1.00879 0.00390011 0
1.00819 0.0039823 0
1.0076 0.00400595 0
1.00703 0.00398286 0
1.00648 0.00392484 0
1.00596 0.00383504 0
1.00547 0.00371658 0
1.00501 0.00357494 0
1.00458 0.00341562 0
1.00418 0.00324412 0
1.0038 0.00306595 0
1.00346 0.00288446 0
1.00314 0.00270294 0
1.00286 0.00252325 0
1.00259 0.00234722 0
1.00235 0.00217637 0
1.00214 0.00201224 0
1.00194 0.0018553 0
1.00176 0.00170607 0
1.0016 0.00156466 0
1.00146 0.00143118 0
1.00133 0.00130554 0
1.00121 0.00118759 0
1.0011 0.00107699 0
1.00101 0.000973381 0
1.00092 0.000876314 0
1.00085 0.000785348 0
1.00078 0.000700054 0
1.00072 0.000620004 0
1.00067 0.000544605 0
1.00063 0.00047326 0
1.00059 0.000405662 0
1.00056 0.000341498 0
1.00053 0.000280005 0
1.00051 0.000220416 0
1.00049 0.000162811 0
1.00048 0.000107271 0
1 0 0
1.00002 -0.000643718 0
1.00012 -0.00161242 0
1.00027 -0.00245405 0
1.00048 -0.00271657 0
1.0007 -0.00270655 0
1.00092 -0.00273057 0
1.00114 -0.00279652 0
1.00138 -0.00291229 0
1.00164 -0.00304871 0
1.00191 -0.0031766 0
1.0022 -0.00330959 0
1.00252 -0.00346133 0
1.00286 -0.00362673 0
1.00322 -0.00380074 0
1.00362 -0.00397533 0
1.00405 -0.00414247 0
1.00451 -0.00430452 0
1.00501 -0.00446382 0
1.00554 -0.00460376 0
1.00611 -0.00470772 0
1.0067 -0.00477888 0
1.00733 -0.0048204 0
1.00798 -0.00481376 0
1.00866 -0.00474044 0
1.00934 -0.00459978 0
1.01 -0.00439116 0
1.01063 -0.0041029 0
1.01122 -0.00372333 0
1.01176 -0.00326564 0
1.01224 -0.00274307 0
1.01266 -0.00215804 0
1.01297 -0.00151301 0
1.01317 -0.00083669 0
1.01323 -0.000157799 0
1.01318 0.00052352 0
1.01301 0.00120712 0
1.01274 0.00186402 0
1.01239 0.00246524 0
1.01196 0.00300264 0
1.01144 0.0034681 0
1.01087 0.0038545 0
1.01024 0.00415473 0
1.0096 0.00437707 0
1.00895 0.0045298 0
1.00829 0.0046124 0
1.00765 0.00462437 0
1.00702 0.00457881 0
1.00642 0.00448879 0
1.00585 0.00436253 0
1.00533 0.0042082 0
1.00484 0.00403195 0
1.0044 0.00383993 0
1.00398 0.00363646 0
1.00361 0.00342588 0
1.00326 0.00321289 0
1.00295 0.00300218 0
1.00266 0.00279549 0
1.00241 0.00259456 0
1.00218 0.00240063 0
1.00197 0.00221495 0
1.00178 0.00203818 0
1.00161 0.00187095 0
1.00146 0.00171319 0
1.00132 0.00156478 0
1.0012 0.00142551 0
1.00109 0.00129513 0
1.00099 0.0011732 0
1.0009 0.00105927 0
1.00082 0.000952783 0
1.00076 0.000853197 0
1.0007 0.000759992 0
1.00064 0.00067265 0
1.00059 0.000590508 0
1.00055 0.000512902 0
1.00052 0.000439463 0
1.00049 0.000369825 0
1.00047 0.000303146 0
1.00045 0.000238584 0
1.00043 0.000176214 0
1.00042 0.000116112 0
1 0 0
1.00002 -0.000692488 0
1.00011 -0.00173382 0
1.00025 -0.00263874 0
1.00043 -0.00292197 0
1.00064 -0.00291377 0
1.00084 -0.0029444 0
1.00104 -0.00302086 0
1.00127 -0.00315014 0
1.00151 -0.00330358 0
1.00176 -0.00345253 0
1.00204 -0.00360829 0
1.00235 -0.00378214 0
1.00267 -0.0039732 0
1.00304 -0.00418053 0
1.00343 -0.00439071 0
1.00386 -0.00459028 0
1.00433 -0.00478668 0
1.00485 -0.00498734 0
1.0054 -0.00516831 0
1.006 -0.00530564 0
1.00664 -0.00540959 0
1.00732 -0.00549041 0
1.00804 -0.00551632 0
1.00878 -0.00545553 0
1.00953 -0.00530947 0
1.01027 -0.00507961 0
1.01097 -0.00475653 0
1.01163 -0.00433083 0
1.01224 -0.00381822 0
1.01282 -0.00323443 0
1.01332 -0.00256518 0
1.01371 -0.0017962 0
1.01396 -0.000977446 0
1.01403 -0.000158857 0
1.01395 0.000651933 0
1.01372 0.00144729 0
1.01339 0.0022032 0
1.01296 0.00289565 0
1.01246 0.00351672 0
1.01187 0.00405852 0
1.01122 0.00450351 0
1.01051 0.00483418 0
1.00979 0.00506772 0
1.00907 0.00522133 0
1.00835 0.00529548 0
1.00765 0.0052907 0
1.00697 0.00521893 0
1.00632 0.00509212 0
1.00571 0.00492317 0
1.00515 0.00472495 0
1.00464 0.00450599 0
1.00418 0.0042748 0
1.00376 0.00403436 0
1.00338 0.00378766 0
1.00303 0.00354025 0
1.00272 0.00329768 0
1.00244 0.00306178 0
1.0022 0.00283441 0
1.00197 0.00261639 0
1.00177 0.00240857 0
1.0016 0.00221166 0
1.00144 0.00202634 0
1.0013 0.00185228 0
1.00117 0.00168913 0
1.00106 0.00153655 0
1.00096 0.00139419 0
1.00087 0.00126144 0
1.00079 0.0011377 0
1.00072 0.00102232 0
1.00066 0.000914672 0
1.0006 0.000814129 0