<?xml version="1.0"?>
<VTKFile type="UnstructuredGrid">
  <UnstructuredGrid>
  <Piece NumberOfPoints="961"  NumberOfCells="225">
    <Points>
      <DataArray type="Float64" NumberOfComponents="3" format="ascii">
0 0 0
0.0333333 0 0
0.0666667 0 0
0.1 0 0
0.133333 0 0
0.166667 0 0
0.2 0 0
0.233333 0 0
0.266667 0 0
0.3 0 0
0.333333 0 0
0.366667 0 0
0.4 0 0
0.433333 0 0
0.466667 0 0
0.5 0 0
0.533333 0 0
0.566667 0 0
0.6 0 0
0.633333 0 0
0.666667 0 0
0.7 0 0
0.733333 0 0
0.766667 0 0
0.8 0 0
0.833333 0 0
0.866667 0 0
0.9 0 0
0.933333 0 0
0.966667 0 0
1 0 0
0 0.0333333 0
0.0333333 0.0333333 0
0.0666667 0.0333333 0
0.1 0.0333333 0
0.133333 0.0333333 0
0.166667 0.0333333 0
0.2 0.0333333 0
0.233333 0.0333333 0
0.266667 0.0333333 0
0.3 0.0333333 0
0.333333 0.0333333 0
0.366667 0.0333333 0
0.4 0.0333333 0
0.433333 0.0333333 0
0.466667 0.0333333 0
0.5 0.0333333 0
0.533333 0.0333333 0
0.566667 0.0333333 0
0.6 0.0333333 0
0.633333 0.0333333 0
0.666667 0.0333333 0
0.7 0.0333333 0
0.733333 0.0333333 0
0.766667 0.0333333 0
0.8 0.0333333 0
0.833333 0.0333333 0
0.866667 0.0333333 0
0.9 0.0333333 0
0.933333 0.0333333 0
0.966667 0.0333333 0
1 0.0333333 0
0 0.0666667 0
0.0333333 0.0666667 0
0.0666667 0.0666667 0
0.1 0.0666667 0
0.133333 0.0666667 0
0.166667 0.0666667 0
0.2 0.0666667 0
0.233333 0.0666667 0
0.266667 0.0666667 0
0.3 0.0666667 0
0.333333 0.0666667 0
0.366667 0.0666667 0
0.4 0.0666667 0
0.433333 0.0666667 0
0.466667 0.0666667 0
0.5 0.0666667 0
0.533333 0.0666667 0
0.566667 0.0666667 0
0.6 0.0666667 0
0.633333 0.0666667 0
0.666667 0.0666667 0
0.7 0.0666667 0
0.733333 0.0666667 0
0.766667 0.0666667 0
0.8 0.0666667 0
0.833333 0.0666667 0
0.866667 0.0666667 0
0.9 0.0666667 0
0.933333 0.0666667 0
0.966667 0.0666667 0
1 0.0666667 0
0 0.1 0
0.0333333 0.1 0
0.0666667 0.1 0
0.1 0.1 0
0.133333 0.1 0
0.166667 0.1 0
0.2 0.1 0
0.233333 0.1 0
0.266667 0.1 0
0.3 0.1 0
0.333333 0.1 0
0.366667 0.1 0
0.4 0.1 0
0.433333 0.1 0
0.466667 0.1 0
0.5 0.1 0
0.533333 0.1 0
0.566667 0.1 0
0.6 0.1 0
0.633333 0.1 0
0.666667 0.1 0
0.7 0.1 0
0.733333 0.1 0
0.766667 0.1 0
0.8 0.1 0
0.833333 0.1 0
0.866667 0.1 0
0.9 0.1 0
0.933333 0.1 0
0.966667 0.1 0
1 0.1 0
0 0.133333 0
0.0333333 0.133333 0
0.0666667 0.133333 0
0.1 0.133333 0
0.133333 0.133333 0
0.166667 0.133333 0
0.2 0.133333 0
0.233333 0.133333 0
0.266667 0.133333 0
0.3 0.133333 0
0.333333 0.133333 0
0.366667 0.133333 0
0.4 0.133333 0
0.433333 0.133333 0
0.466667 0.133333 0
0.5 0.133333 0
0.533333 0.133333 0
0.566667 0.133333 0
0.6 0.133333 0
0.633333 0.133333 0
0.666667 0.133333 0
0.7 0.133333 0
0.733333 0.133333 0
0.766667 0.133333 0
0.8 0.133333 0
0.833333 0.133333 0
0.866667 0.133333 0
0.9 0.133333 0
0.933333 0.133333 0
0.966667 0.133333 0
1 0.133333 0
0 0.166667 0
0.0333333 0.166667 0
0.0666667 0.166667 0
0.1 0.166667 0
0.133333 0.166667 0
0.166667 0.166667 0
0.2 0.166667 0
0.233333 0.166667 0
0.266667 0.166667 0
0.3 0.166667 0
0.333333 0.166667 0
0.366667 0.166667 0
0.4 0.166667 0
0.433333 0.166667 0
0.466667 0.166667 0
0.5 0.166667 0
0.533333 0.166667 0
0.566667 0.166667 0
0.6 0.166667 0
0.633333 0.166667 0
0.666667 0.166667 0
0.7 0.166667 0
0.733333 0.166667 0
0.766667 0.166667 0
0.8 0.166667 0
0.833333 0.166667 0
0.866667 0.166667 0
0.9 0.166667 0
0.933333 0.166667 0
0.966667 0.166667 0
1 0.166667 0
0 0.2 0
0.0333333 0.2 0
0.0666667 0.2 0
0.1 0.2 0
0.133333 0.2 0
0.166667 0.2 0
0.2 0.2 0
0.233333 0.2 0
0.266667 0.2 0
0.3 0.2 0
0.333333 0.2 0
0.366667 0.2 0
0.4 0.2 0
0.433333 0.2 0
0.466667 0.2 0
0.5 0.2 0
0.533333 0.2 0
0.566667 0.2 0
0.6 0.2 0
0.633333 0.2 0
0.666667 0.2 0
0.7 0.2 0
0.733333 0.2 0
0.766667 0.2 0
0.8 0.2 0
0.833333 0.2 0
0.866667 0.2 0
0.9 0.2 0
0.933333 0.2 0
0.966667 0.2 0
1 0.2 0
0 0.233333 0
0.0333333 0.233333 0
0.0666667 0.233333 0
0.1 0.233333 0
0.133333 0.233333 0
0.166667 0.233333 0
0.2 0.233333 0
0.233333 0.233333 0
0.266667 0.233333 0
0.3 0.233333 0
0.333333 0.233333 0
0.366667 0.233333 0
0.4 0.233333 0
0.433333 0.233333 0
0.466667 0.233333 0
0.5 0.233333 0
0.533333 0.233333 0
0.566667 0.233333 0
0.6 0.233333 0
0.633333 0.233333 0
0.666667 0.233333 0
0.7 0.233333 0
0.733333 0.233333 0
0.766667 0.233333 0
0.8 0.233333 0
0.833333 0.233333 0
0.866667 0.233333 0
0.9 0.233333 0
0.933333 0.233333 0
0.966667 0.233333 0
1 0.233333 0
0 0.266667 0
0.0333333 0.266667 0
0.0666667 0.266667 0
0.1 0.266667 0
0.133333 0.266667 0
0.166667 0.266667 0
0.2 0.266667 0
0.233333 0.266667 0
0.266667 0.266667 0
0.3 0.266667 0
0.333333 0.266667 0
0.366667 0.266667 0
0.4 0.266667 0
0.433333 0.266667 0
0.466667 0.266667 0
0.5 0.266667 0
0.533333 0.266667 0
0.566667 0.266667 0
0.6 0.266667 0
0.633333 0.266667 0
0.666667 0.266667 0
0.7 0.266667 0
0.733333 0.266667 0
0.766667 0.266667 0
0.8 0.266667 0
0.833333 0.266667 0
0.866667 0.266667 0
0.9 0.266667 0
0.933333 0.266667 0
0.966667 0.266667 0
1 0.266667 0
0 0.3 0
0.0333333 0.3 0
0.0666667 0.3 0
0.1 0.3 0
0.133333 0.3 0
0.166667 0.3 0
0.2 0.3 0
0.233333 0.3 0
0.266667 0.3 0
0.3 0.3 0
0.333333 0.3 0
0.366667 0.3 0
0.4 0.3 0
0.433333 0.3 0
0.466667 0.3 0
0.5 0.3 0
0.533333 0.3 0
0.566667 0.3 0
0.6 0.3 0
0.633333 0.3 0
0.666667 0.3 0
0.7 0.3 0
0.733333 0.3 0
0.766667 0.3 0
0.8 0.3 0
0.833333 0.3 0
0.866667 0.3 0
0.9 0.3 0
0.933333 0.3 0
0.966667 0.3 0
1 0.3 0
0 0.333333 0
0.0333333 0.333333 0
0.0666667 0.333333 0
0.1 0.333333 0
0.133333 0.333333 0
0.166667 0.333333 0
0.2 0.333333 0
0.233333 0.333333 0
0.266667 0.333333 0
0.3 0.333333 0
0.333333 0.333333 0
0.366667 0.333333 0
0.4 0.333333 0
0.433333 0.333333 0
0.466667 0.333333 0
0.5 0.333333 0
0.533333 0.333333 0
0.566667 0.333333 0
0.6 0.333333 0
0.633333 0.333333 0
0.666667 0.333333 0
0.7 0.333333 0
0.733333 0.333333 0
0.766667 0.333333 0
0.8 0.333333 0
0.833333 0.333333 0
0.866667 0.333333 0
0.9 0.333333 0
0.933333 0.333333 0
0.966667 0.333333 0
1 0.333333 0
0 0.366667 0
0.0333333 0.366667 0
0.0666667 0.366667 0
0.1 0.366667 0
0.133333 0.366667 0
0.166667 0.366667 0
0.2 0.366667 0
0.233333 0.366667 0
0.266667 0.366667 0
0.3 0.366667 0
0.333333 0.366667 0
0.366667 0.366667 0
0.4 0.366667 0
0.433333 0.366667 0
0.466667 0.366667 0
0.5 0.366667 0
0.533333 0.366667 0
0.566667 0.366667 0
0.6 0.366667 0
0.633333 0.366667 0
0.666667 0.366667 0
0.7 0.366667 0
0.733333 0.366667 0
0.766667 0.366667 0
0.8 0.366667 0
0.833333 0.366667 0
0.866667 0.366667 0
0.9 0.366667 0
0.933333 0.366667 0
0.966667 0.366667 0
1 0.366667 0
0 0.4 0
0.0333333 0.4 0
0.0666667 0.4 0
0.1 0.4 0
0.133333 0.4 0
0.166667 0.4 0
0.2 0.4 0
0.233333 0.4 0
0.266667 0.4 0
0.3 0.4 0
0.333333 0.4 0
0.366667 0.4 0
0.4 0.4 0
0.433333 0.4 0
0.466667 0.4 0
0.5 0.4 0
0.533333 0.4 0
0.566667 0.4 0
0.6 0.4 0
0.633333 0.4 0
0.666667 0.4 0
0.7 0.4 0
0.733333 0.4 0
0.766667 0.4 0
0.8 0.4 0
0.833333 0.4 0
0.866667 0.4 0
0.9 0.4 0
0.933333 0.4 0
0.966667 0.4 0
1 0.4 0
0 0.433333 0
0.0333333 0.433333 0
0.0666667 0.433333 0
0.1 0.433333 0
0.133333 0.433333 0
0.166667 0.433333 0
0.2 0.433333 0
0.233333 0.433333 0
0.266667 0.433333 0
0.3 0.433333 0
0.333333 0.433333 0
0.366667 0.433333 0
0.4 0.433333 0
0.433333 0.433333 0
0.466667 0.433333 0
0.5 0.433333 0
0.533333 0.433333 0
0.566667 0.433333 0
0.6 0.433333 0
0.633333 0.433333 0
0.666667 0.433333 0
0.7 0.433333 0
0.733333 0.433333 0
0.766667 0.433333 0
0.8 0.433333 0
0.833333 0.433333 0
0.866667 0.433333 0
0.9 0.433333 0
0.933333 0.433333 0
0.966667 0.433333 0
1 0.433333 0
0 0.466667 0
0.0333333 0.466667 0
0.0666667 0.466667 0
0.1 0.466667 0
0.133333 0.466667 0
0.166667 0.466667 0
0.2 0.466667 0
0.233333 0.466667 0
0.266667 0.466667 0
0.3 0.466667 0
0.333333 0.466667 0
0.366667 0.466667 0
0.4 0.466667 0
0.433333 0.466667 0
0.466667 0.466667 0
0.5 0.466667 0
0.533333 0.466667 0
0.566667 0.466667 0
0.6 0.466667 0
0.633333 0.466667 0
0.666667 0.466667 0
0.7 0.466667 0
0.733333 0.466667 0
0.766667 0.466667 0
0.8 0.466667 0
0.833333 0.466667 0
0.866667 0.466667 0
0.9 0.466667 0
0.933333 0.466667 0
0.966667 0.466667 0
1 0.466667 0
0 0.5 0
0.0333333 0.5 0
0.0666667 0.5 0
0.1 0.5 0
0.133333 0.5 0
0.166667 0.5 0
0.2 0.5 0
0.233333 0.5 0
0.266667 0.5 0
0.3 0.5 0
0.333333 0.5 0
0.366667 0.5 0
0.4 0.5 0
0.433333 0.5 0
0.466667 0.5 0
0.5 0.5 0
0.533333 0.5 0
0.566667 0.5 0
0.6 0.5 0
0.633333 0.5 0
0.666667 0.5 0
0.7 0.5 0
0.733333 0.5 0
0.766667 0.5 0
0.8 0.5 0
0.833333 0.5 0
0.866667 0.5 0
0.9 0.5 0
0.933333 0.5 0
0.966667 0.5 0
1 0.5 0
0 0.533333 0
0.0333333 0.533333 0
0.0666667 0.533333 0
0.1 0.533333 0
0.133333 0.533333 0
0.166667 0.533333 0
0.2 0.533333 0
0.233333 0.533333 0
0.266667 0.533333 0
0.3 0.533333 0
0.333333 0.533333 0
0.366667 0.533333 0
0.4 0.533333 0
0.433333 0.533333 0
0.466667 0.533333 0
0.5 0.533333 0
0.533333 0.533333 0
0.566667 0.533333 0
0.6 0.533333 0
0.633333 0.533333 0
0.666667 0.533333 0
0.7 0.533333 0
0.733333 0.533333 0
0.766667 0.533333 0
0.8 0.533333 0
0.833333 0.533333 0
0.866667 0.533333 0
0.9 0.533333 0
0.933333 0.533333 0
0.966667 0.533333 0
1 0.533333 0
0 0.566667 0
0.0333333 0.566667 0
0.0666667 0.566667 0
0.1 0.566667 0
0.133333 0.566667 0
0.166667 0.566667 0
0.2 0.566667 0
0.233333 0.566667 0
0.266667 0.566667 0
0.3 0.566667 0
0.333333 0.566667 0
0.366667 0.566667 0
0.4 0.566667 0
0.433333 0.566667 0
0.466667 0.566667 0
0.5 0.566667 0
0.533333 0.566667 0
0.566667 0.566667 0
0.6 0.566667 0
0.633333 0.566667 0
0.666667 0.566667 0
0.7 0.566667 0
0.733333 0.566667 0
0.766667 0.566667 0
0.8 0.566667 0
0.833333 0.566667 0
0.866667 0.566667 0
0.9 0.566667 0
0.933333 0.566667 0
0.966667 0.566667 0
1 0.566667 0
0 0.6 0
0.0333333 0.6 0
0.0666667 0.6 0
0.1 0.6 0
0.133333 0.6 0
0.166667 0.6 0
0.2 0.6 0
0.233333 0.6 0
0.266667 0.6 0
0.3 0.6 0
0.333333 0.6 0
0.366667 0.6 0
0.4 0.6 0
0.433333 0.6 0
0.466667 0.6 0
0.5 0.6 0
0.533333 0.6 0
0.566667 0.6 0
0.6 0.6 0
0.633333 0.6 0
0.666667 0.6 0
0.7 0.6 0
0.733333 0.6 0
0.766667 0.6 0
0.8 0.6 0
0.833333 0.6 0
0.866667 0.6 0
0.9 0.6 0
0.933333 0.6 0
0.966667 0.6 0
1 0.6 0
0 0.633333 0
0.0333333 0.633333 0
0.0666667 0.633333 0
0.1 0.633333 0
0.133333 0.633333 0
0.166667 0.633333 0
0.2 0.633333 0
0.233333 0.633333 0
0.266667 0.633333 0
[...]
    <PointData>
      <DataArray type="Float64" NumberOfComponents="3" Name="Velocity" format="ascii">
0 0 0
0 0 0
0 0 0
0 0 0
0 0 0
0 0 0
0 0 0
0 0 0
0 0 0
0 0 0
0 0 0
0 0 0
0 0 0
0 0 0
0 0 0
0 0 0
0 0 0
0 0 0
0 0 0
0 0 0
0 0 0
0 0 0
0 0 0
0 0 0
0 0 0
0 0 0
0 0 0
0 0 0
0 0 0
0 0 0
0 0 0
0 0 0
0.0180943 0.0357284 0
-0.00425237 0.0318925 0
-0.0254582 0.0301375 0
-0.00394134 0.0721086 0
0.0274155 0.115341 0
0.0357294 0.117372 0
0.0300606 0.103892 0
0.0194692 0.100593 0
0.00784686 0.0962472 0
-0.000914692 0.0796227 0
-0.0072821 0.0594511 0
-0.011722 0.0444637 0
-0.0146603 0.0307824 0
-0.0165226 0.0145289 0
-0.0173119 -0.00274201 0
-0.0170306 -0.0194757 0
-0.0156527 -0.035396 0
-0.0131521 -0.0502268 0
-0.00916016 -0.0658943 0
-0.00330825 -0.0843244 0
0.00504675 -0.0998802 0
0.0165479 -0.106925 0
0.029673 -0.11385 0
0.0428997 -0.129048 0
0.039905 -0.125434 0
0.00436577 -0.0759239 0
-0.0235188 -0.0282771 0
-0.00354944 -0.0302524 0
0.0192861 -0.0360825 0
0 0 0
0 0 0
0.0163 0.0339243 0
0.0483745 0.0743448 0
0.0736614 0.107319 0
0.0695982 0.118902 0
0.052244 0.113598 0
0.0376575 0.0959094 0
0.0259292 0.07903 0
0.0171496 0.0761544 0
0.0100728 0.0748974 0
0.00345276 0.0628735 0
-0.00217585 0.0473275 0
-0.00627849 0.0355041 0
-0.00901696 0.0245391 0
-0.010553 0.0115685 0
-0.0111285 -0.00215634 0
-0.0109851 -0.0153837 0
-0.00982961 -0.0280444 0
-0.00736867 -0.0400689 0
-0.00361875 -0.0525395 0
0.00140372 -0.0665384 0
0.00786051 -0.0776913 0
0.0159134 -0.0816239 0
0.0257341 -0.0864247 0
0.0374943 -0.100182 0
0.0522131 -0.113949 0
0.0709096 -0.118778 0
0.0759622 -0.107447 0
0.0497492 -0.0727322 0
0.016389 -0.031346 0
0 0 0
0 0 0
0.0311795 0.0256395 0
0.115414 0.103667 0
0.174615 0.161133 0
0.130696 0.125086 0
0.0554413 0.0585991 0
0.020634 0.024744 0
0.00981444 0.0128606 0
0.00652231 0.012288 0
0.00626237 0.0154227 0
0.00453942 0.014661 0
0.00217572 0.0119344 0
-6.41088e-06 0.00917471 0
-0.00159807 0.00622521 0
-0.00219034 0.00292938 0
-0.00228217 -0.000437769 0
-0.0023725 -0.00360124 0
-0.00190772 -0.00677375 0
-0.000334193 -0.010168 0
0.00172679 -0.0132646 0
0.00365397 -0.0155443 0
0.00552123 -0.0161653 0
0.00740251 -0.0142861 0
0.00945792 -0.0137546 0
0.0118476 -0.0184188 0
0.0403444 -0.0470268 0
0.120721 -0.118327 0
0.172559 -0.160655 0
0.115442 -0.102347 0
0.0307835 -0.0224477 0
0 0 0
0 0 0
0.0992954 0.0419257 0
0.154399 0.0961708 0
0.15466 0.121172 0
0.089431 0.0753672 0
0.0179629 0.0141727 0
-0.000491091 -0.00699353 0
0.00392532 -0.00717144 0
0.00106861 -0.00540079 0
-0.00399958 -0.00270472 0
-0.00621764 -0.000106366 0
-0.00737042 0.00157729 0
-0.00924277 0.00152927 0
-0.0109316 0.000795615 0
-0.0115337 0.000422364 0
-0.011605 0.000218936 0
-0.0117015 -5.24514e-06 0
-0.0112639 -0.000412732 0
-0.0097331 -0.00116608 0
-0.008021 -0.00139881 0
-0.00703947 -0.000244476 0
-0.00489114 0.00196541 0
0.000321338 0.00489934 0
0.00211921 0.008129 0
-0.00597628 0.0112261 0
0.0077189 -0.0061486 0
0.0748888 -0.0643341 0
0.140389 -0.111048 0
0.149074 -0.0940058 0
0.101944 -0.0460446 0
0 0 0
0 0 0
0.166951 0.0627168 0
0.165093 0.0743095 0
0.0846714 0.0539853 0
0.0159293 0.0209513 0
-0.0238784 -0.00591577 0
-0.017497 -0.00773914 0
0.000732047 0.000327468 0
-0.00353283 0.00313032 0
-0.0153416 0.003634 0
-0.0197441 0.00480306 0
-0.0209535 0.00546512 0
-0.0231827 0.00444777 0
-0.0253199 0.0027733 0
-0.0262534 0.00146399 0
-0.0264794 0.000275401 0
-0.026494 -0.00103693 0
-0.0258405 -0.002455 0
-0.0240619 -0.00396084 0
-0.0221001 -0.0050885 0
-0.0208969 -0.00537202 0
-0.0168759 -0.00473544 0
-0.00646042 -0.00310277 0
-0.00218114 0.000385429 0
-0.0165686 0.0065886 0
-0.0235846 0.00640871 0
0.00280923 -0.00925229 0
0.0629667 -0.0365432 0
0.157241 -0.0716127 0
0.173598 -0.0731889 0
0 0 0
0 0 0
0.180449 0.0679462 0
0.147262 0.060538 0
0.035523 0.0261222 0
-0.0196812 0.0130456 0
-0.0337701 0.0120985 0
-0.0221627 0.0140713 0
-0.00729512 0.0167507 0
-0.0116033 0.0179236 0
-0.022392 0.0175576 0
-0.0269658 0.0156208 0
-0.0287129 0.012807 0
-0.0310215 0.00981023 0
-0.0330658 0.00668123 0
-0.03402 0.00347086 0
-0.0342876 0.000193251 0
-0.0342721 -0.00313747 0
-0.0335798 -0.00639424 0
-0.031817 -0.00944999 0
-0.0297485 -0.0124801 0
-0.0281388 -0.01566 0
-0.0239322 -0.0177043 0
-0.0140731 -0.0173277 0
-0.00934226 -0.015826 0
-0.0205207 -0.0144949 0
-0.0314876 -0.0116317 0
-0.026122 -0.00553358 0
0.0238093 -0.0150607 0
0.146539 -0.0590732 0
0.189469 -0.0749326 0
0 0 0
0 0 0
0.175816 0.0634546 0
0.128993 0.0526322 0
0.0100228 0.0216633 0
-0.0305999 0.0246784 0
-0.0286162 0.0378403 0
-0.0197673 0.037312 0
-0.0129252 0.0319767 0
-0.0169619 0.0307182 0
-0.0245759 0.0297087 0
-0.0284655 0.0251207 0
-0.0305763 0.0192867 0
-0.0328537 0.0145392 0
-0.0347096 0.0101109 0
-0.0355559 0.00523459 0
-0.0357847 0.000154792 0
-0.0357878 -0.00488393 0
-0.0351493 -0.00972546 0
-0.0334531 -0.0142136 0
-0.0313584 -0.0189231 0
-0.0295249 -0.0244286 0
-0.0258231 -0.0286652 0
-0.0181237 -0.0295682 0
-0.0136269 -0.0305678 0
-0.0195334 -0.0350941 0
-0.0277614 -0.0349624 0
-0.0302293 -0.0219877 0
0.011508 -0.0198029 0
0.135895 -0.0520409 0
0.184777 -0.0637554 0
0 0 0
0 0 0
0.189077 0.0550827 0
0.138374 0.0483679 0
0.0109781 0.0246886 0
-0.0300259 0.0288778 0
-0.0253208 0.0409343 0
-0.0155896 0.0408569 0
-0.00892703 0.0358839 0
-0.0134276 0.0332536 0
-0.0213183 0.0307299 0
-0.0248262 0.0260767 0
-0.0264713 0.0205879 0
-0.0287738 0.0155572 0
-0.0307919 0.0106538 0
-0.0315839 0.0055468 0
-0.0317257 0.000342329 0
-0.0317934 -0.00485338 0
-0.0312166 -0.00994369 0
-0.0294245 -0.0148319 0
-0.0273224 -0.019767 0
-0.0258153 -0.0249978 0
-0.0223116 -0.029342 0
-0.0142192 -0.031617 0
-0.00929803 -0.0339026 0
-0.0153078 -0.0382787 0
-0.0241778 -0.0382756 0
-0.027837 -0.0274241 0
0.0146542 -0.0239725 0
0.144236 -0.046169 0
0.19474 -0.052137 0
0 0 0
0 0 0
0.204267 0.0459787 0
0.154592 0.045954 0
0.0213767 0.0306097 0
-0.0249802 0.0306298 0
-0.0232232 0.0361296 0
-0.0120969 0.0372245 0
-0.00324481 0.0354266 0
-0.00831019 0.0322481 0
-0.0174773 0.0283532 0
-0.0209303 0.0244062 0
-0.0220972 0.0201584 0
-0.0244059 0.0153612 0
-0.0265894 0.0103479 0
-0.0273808 0.00545196 0
-0.0274791 0.000590681 0
-0.0275835 -0.00431855 0
-0.0270346 -0.00923718 0
-0.0251728 -0.0141267 0
-0.0230892 -0.0188137 0
-0.0218749 -0.0231248 0
-0.0183088 -0.0269747 0
-0.00916964 -0.030278 0
-0.00371579 -0.0330444 0
-0.0112058 -0.0352835 0
-0.0212676 -0.0346648 0
-0.0235294 -0.0288577 0
0.0220674 -0.0278974 0
0.155581 -0.0418193 0
0.205422 -0.0420459 0
0 0 0
0 0 0
0.205422 0.0392908 0
0.156833 0.0435992 0
0.0242062 0.034838 0
-0.0224839 0.0349202 0
-0.021663 0.0381753 0
-0.0117565 0.0389331 0
-0.00382256 0.0375594 0
-0.00891944 0.0344204 0
-0.0179108 0.0303111 0
-0.0216604 0.0260267 0
-0.023153 0.021446 0
-0.0253738 0.0164478 0
-0.0273787 0.0112311 0
-0.0282235 0.00599456 0
-0.0284133 0.000734666 0
-0.0284528 -0.00455217 0
-0.0278567 -0.00979418 0
-0.0261393 -0.0149196 0
-0.0241077 -0.0198649 0
-0.0225687 -0.0245663 0
-0.0187264 -0.0288033 0
-0.00978498 -0.0323553 0
-0.0042405 -0.0352071 0
-0.0105891 -0.0373436 0
-0.019562 -0.0372228 0
-0.0218903 -0.0333028 0
0.0225668 -0.0319057 0
0.15395 -0.0393536 0
0.202885 -0.0354503 0
0 0 0
0 0 0
0.202257 0.0350505 0
0.154293 0.0422073 0
0.0237051 0.0382822 0
-0.021911 0.0400874 0
-0.0213179 0.0431816 0
-0.0132785 0.0431239 0
-0.00714135 0.0410166 0
-0.0122548 0.0379624 0
-0.0207825 0.033958 0
-0.0248879 0.0290006 0
-0.0268799 0.0235658 0
-0.0290674 0.0181297 0
-0.0308892 0.0125712 0
-0.0317842 0.00676974 0
-0.032067 0.000849571 0
-0.0320518 -0.00506487 0
-0.0314129 -0.0108548 0
-0.0298242 -0.0164016 0
-0.0277894 -0.0218596 0
-0.025812 -0.0273832 0
-0.0216757 -0.0323055 0
-0.0131637 -0.0359596 0
-0.00753987 -0.0389138 0
-0.0120677 -0.0417365 0
-0.0193731 -0.0423833 0
-0.0220817 -0.0388099 0
0.0204341 -0.0359409 0
0.148802 -0.038701 0
0.197249 -0.031813 0
0 0 0
0 0 0
0.204488 0.0332893 0
0.156173 0.0426819 0
0.024112 0.041851 0
-0.0226356 0.0444697 0
-0.0228656 0.0472586 0
-0.0153733 0.0469381 0
-0.00968224 0.0445325 0
-0.0153158 0.0410659 0
-0.0242558 0.0366484 0
-0.0284844 0.0313902 0
-0.0305189 0.0256331 0
-0.0328764 0.0197192 0
-0.0348506 0.0136363 0
-0.0357352 0.00737268 0
-0.035979 0.00101068 0
-0.0360312 -0.00536729 0
-0.0354334 -0.0116593 0
-0.0337274 -0.0177635 0
-0.0315456 -0.0237368 0
-0.0295204 -0.0296363 0
-0.0252679 -0.0349589 0
-0.0164043 -0.0392015 0
-0.0102816 -0.0426873 0
-0.0142513 -0.0457395 0
-0.021013 -0.0465796 0
-0.0232658 -0.0434291 0
0.0199509 -0.0399467 0
0.149598 -0.0397907 0
0.19863 -0.0305967 0
0 0 0
0 0 0
0.20818 0.0328948 0
0.159114 0.0443753 0
0.0244398 0.0459382 0
-0.0242027 0.0490804 0
-0.0255202 0.0515515 0
-0.0182195 0.0511009 0
-0.0125857 0.0484603 0
-0.0189041 0.0443613 0
-0.0285531 0.0393003 0
-0.0329115 0.033774 0
-0.0349061 0.027791 0
-0.0374639 0.0213597 0
-0.0396541 0.0146823 0
-0.0405459 0.00796056 0
-0.0407493 0.00119418 0
-0.0408738 -0.00561725 0
-0.040315 -0.0124165 0
-0.0384682 -0.0191463 0
-0.0361394 -0.0256776 0
-0.0341349 -0.0318813 0
-0.0297497 -0.037592 0
-0.0202787 -0.0426448 0
-0.0135286 -0.0468692 0
-0.0173056 -0.0500949 0
-0.0237859 -0.051 0
-0.0251459 -0.0482627 0
0.0197087 -0.0444308 0
0.151872 -0.0420523 0
0.201813 -0.0307133 0
0 0 0
0 0 0
0.209401 0.0327546 0
0.159762 0.0466395 0
0.0237019 0.0509378 0
-0.026157 0.0549327 0
-0.0284958 0.0572054 0
-0.0219956 0.0563372 0
-0.0169922 0.0531532 0
-0.0238215 0.0484786 0
-0.0338966 0.0428316 0
-0.0386307 0.0367304 0
-0.040878 0.0301824 0
-0.0434929 0.0231949 0
-0.0456906 0.0159652 0
-0.0466862 0.00869057 0
-0.0469777 0.00137624 0
-0.0470629 -0.00597257 0
-0.0464546 -0.0133353 0
-0.0446657 -0.0206912 0
-0.0423339 -0.0278631 0
-0.040097 -0.0346736 0
-0.0353677 -0.0410333 0
-0.0255588 -0.0468529 0
-0.0183437 -0.0518007 0
-0.021396 -0.0555448 0
-0.0269963 -0.0568329 0
-0.0274253 -0.0544128 0
0.0182988 -0.0499013 0
0.151157 -0.0449153 0
0.201581 -0.0310748 0
0 0 0
0 0 0
0.209996 0.0328481 0
0.159524 0.0495148 0
0.022057 0.0569122 0
-0.0289284 0.0619521 0
-0.0322372 0.0640229 0
-0.0266742 0.0625132 0
-0.0224369 0.0585413 0
-0.0297231 0.0532258 0
-0.0401188 0.0469412 0
-0.0452099 0.0400623 0
-0.0477144 0.0327471 0
-0.0503502 0.0251538 0
-0.0525113 0.0173759 0
-0.0535921 0.00950717 0
-0.0539733 0.00158301 0
-0.0540358 -0.00636116 0
-0.0534066 -0.0143243 0
-0.0517123 -0.0223056 0
-0.0494195 -0.0301733 0
-0.0469947 -0.0377963 0
-0.0419755 -0.0450113 0
-0.0318996 -0.0516554 0
-0.0242521 -0.0574104 0
-0.0265178 -0.0619583 0
-0.0311409 -0.0638948 0
-0.0305652 -0.0618154 0
0.0161045 -0.0564082 0
0.149763 -0.0483611 0
0.200899 -0.0315873 0
0 0 0
0 0 0
0.211811 0.0331545 0
0.159808 0.0530415 0
0.0196642 0.0639238 0
-0.0329467 0.0700643 0
-0.0371891 0.0718067 0
-0.0322276 0.069495 0
-0.028455 0.0645545 0
-0.036264 0.0584107 0
-0.0470523 0.0513285 0
-0.0522173 0.0435728 0
-0.0546953 0.0354248 0
-0.0574224 0.0271654 0
-0.0596676 0.0188052 0
-0.0606997 0.0103548 0
-0.0610452 0.00184061 0
-0.0612304 -0.00671095 0
-0.0607255 -0.0152925 0
-0.0590006 -0.0238967 0
-0.056687 -0.0324883 0
-0.0544161 -0.0410322 0
-0.0494264 -0.0492546 0
-0.0389563 -0.0568816 0
-0.0307786 -0.063627 0
-0.0326661 -0.0692047 0
-0.0367164 -0.0720021 0
-0.0350268 -0.0704066 0
0.0135093 -0.0640017 0
0.149999 -0.0523711 0
0.202732 -0.0321566 0
0 0 0
0 0 0
0.212604 0.0334526 0
0.158867 0.0570348 0
0.0161974 0.0718851 0
-0.0379943 0.0791418 0
-0.0432036 0.0803527 0
-0.038926 0.0770654 0
-0.0356446 0.0709541 0
-0.0438424 0.0636929 0
-0.0548391 0.0555876 0
-0.0599541 0.0469439 0
-0.0623082 0.0380205 0
-0.0650225 0.029076 0
-0.0672634 0.0201146 0
-0.0681977 0.0111407 0
-0.0684905 0.00213529 0
-0.0688071 -0.00692058 0
-0.068475 -0.0160589 0
-0.0668217 -0.0253115 0
-0.0646055 -0.034645 0
-0.0625848 -0.0440259 0
-0.0577589 -0.0532638 0
-0.0471271 -0.0621683 0
-0.0386034 -0.0702622 0
-0.0401018 -0.0770681 0
-0.0434742 -0.0809349 0
-0.0405722 -0.0802116 0
0.00988546 -0.0729232 0
0.14918 -0.0570951 0
0.203741 -0.0327724 0
0 0 0
0 0 0
0.210134 0.033521 0
0.154952 0.0613101 0
0.0113302 0.0807084 0
-0.0438538 0.0890573 0
-0.0501327 0.089457 0
-0.0470393 0.0850075 0
-0.0446039 0.0775016 0
-0.0528567 0.0687322 0
-0.0636213 0.0593129 0
-0.0687213 0.0498575 0
-0.0710406 0.0403393 0
-0.0734631 0.0307316 0
-0.075403 0.0211656 0
-0.0762747 0.0117721 0
-0.0766064 0.00245324 0
-0.0769263 -0.00688872 0
-0.0767184 -0.0164426 0
-0.0754667 -0.0263971 0
-0.0736442 -0.0364807 0
-0.0717241 -0.0464219 0
-0.0670111 -0.0565396 0
-0.05681 -0.0671525 0
-0.0484065 -0.0771279 0
-0.049086 -0.0853327 0
-0.0511658 -0.0904732 0
-0.0469631 -0.0912554 0
0.00460498 -0.0834138 0
0.144621 -0.0626828 0
0.200586 -0.0334243 0
0 0 0
0 0 0
0.208536 0.0322287 0
0.151164 0.0654719 0
0.00534275 0.0912263 0
-0.0514716 0.100989 0
-0.0588445 0.100084 0
-0.0563415 0.093836 0
-0.0540798 0.084399 0
-0.0621764 0.073927 0
-0.0726244 0.063112 0
-0.0774166 0.0526459 0
-0.0793793 0.0423729 0
-0.0813387 0.032137 0
-0.0828876 0.0220822 0
-0.0836183 0.0123523 0
-0.0839473 0.00278759 0
-0.0842907 -0.00677162 0
-0.0842595 -0.0166444 0
-0.0834646 -0.0271498 0
-0.0821999 -0.0379212 0
-0.080759 -0.0485921 0
-0.0764874 -0.0597958 0
-0.0667304 -0.0721656 0
-0.058696 -0.0842282 0
-0.0595922 -0.0945106 0
-0.0612179 -0.101713 0
-0.0553718 -0.104537 0
-0.00147795 -0.0957611 0
0.14104 -0.0681662 0
0.199194 -0.0326224 0
0 0 0
0 0 0
0.211942 0.0284443 0
0.150603 0.0691249 0
-0.00148514 0.104272 0
-0.0617943 0.116115 0
-0.0702072 0.113198 0
-0.0666066 0.104066 0
-0.0628191 0.0918481 0
-0.0706712 0.0796758 0
-0.0810737 0.0675923 0
-0.0849373 0.0556416 0
-0.085811 0.0441132 0
-0.0872438 0.0332969 0
-0.0885181 0.0229887 0
-0.0889159 0.0129849 0
-0.0890675 0.00313143 0
-0.0896028 -0.00672553 0
-0.0899018 -0.016865 0
-0.0893443 -0.027566 0
-0.0886691 -0.0388924 0
-0.0886145 -0.0509085 0
-0.0854921 -0.0637465 0
-0.0756133 -0.0775388 0
-0.0679801 -0.0915674 0
-0.0715943 -0.105114 0
-0.0750573 -0.115752 0
-0.0669704 -0.121055 0
-0.00750917 -0.110253 0
0.143151 -0.0725773 0
0.205493 -0.0288767 0
0 0 0
0 0 0
0.210408 0.021599 0
0.144344 0.0724888 0
-0.0127484 0.120208 0
-0.0754249 0.132295 0
-0.0841 0.124317 0
-0.079188 0.111842 0
-0.0736466 0.0972931 0
-0.0804334 0.0830937 0
-0.0898824 0.0693795 0
-0.0923277 0.0562863 0
-0.0918377 0.044105 0
-0.0924808 0.0331267 0
-0.0932601 0.0229351 0
-0.0931785 0.0131142 0
-0.0930778 0.00347324 0
-0.0937997 -0.00617853 0
-0.0944935 -0.0161213 0
-0.0943088 -0.0266353 0
-0.0943993 -0.0380517 0
-0.0959187 -0.0507017 0
-0.0944229 -0.064779 0
-0.0854679 -0.0804771 0
-0.0791801 -0.0968354 0
-0.0856857 -0.112893 0
-0.0912397 -0.127401 0
-0.0820971 -0.139109 0
-0.018688 -0.128879 0
0.138558 -0.0775747 0
0.206 -0.0222599 0
0 0 0
0 0 0
0.19399 0.011124 0
0.12346 0.0757828 0
-0.032042 0.139398 0
-0.0929662 0.147391 0
-0.100402 0.128962 0
-0.0954391 0.113312 0
-0.0893868 0.0981779 0
-0.0935552 0.0812957 0
-0.0999638 0.0650992 0
-0.100632 0.0520219 0
-0.0989615 0.040893 0
-0.0983522 0.0305419 0
-0.0980791 0.0209716 0
-0.0974172 0.0121848 0
-0.0970893 0.00380148 0
-0.0978185 -0.0045587 0
-0.098883 -0.0134302 0
-0.0995611 -0.0233473 0
-0.100738 -0.0340561 0
-0.1033 -0.0453027 0
-0.103678 -0.0592811 0
-0.0983034 -0.0781853 0
-0.0952173 -0.0977221 0
-0.10246 -0.113598 0
-0.108321 -0.131472 0
-0.10109 -0.156999 0
-0.0402137 -0.153631 0
0.114863 -0.0848172 0
0.187236 -0.0128446 0
0 0 0
0 0 0
0.178804 -0.00109228 0
0.105052 0.0777393 0
-0.0485674 0.159403 0
-0.109361 0.166807 0
-0.116359 0.140189 0
-0.108592 0.119786 0
-0.098603 0.10145 0
-0.0989393 0.0810332 0
-0.102091 0.0622009 0
-0.100551 0.0486187 0
-0.0972141 0.0380124 0
-0.09498 0.0281078 0
-0.0934126 0.0191128 0
-0.0920763 0.011235 0
-0.0914756 0.00394286 0
-0.092115 -0.00329523 0
-0.0935075 -0.0112103 0
-0.0951664 -0.0205335 0
-0.0976697 -0.0306746 0
-0.101595 -0.0410431 0
-0.104052 -0.0553094 0
-0.102149 -0.0771436 0
-0.103549 -0.100736 0
-0.115916 -0.120276 0
-0.124972 -0.143237 0
-0.116436 -0.177092 0
-0.0546613 -0.174989 0
0.0960024 -0.0900747 0
0.169556 -0.004396 0
0 0 0
0 0 0
0.180969 -0.0131614 0
0.106221 0.0770904 0
-0.0515261 0.177784 0
-0.119553 0.195949 0
-0.129218 0.171055 0
-0.111877 0.142574 0
-0.0898582 0.114057 0
-0.0854883 0.0890572 0
-0.0870389 0.0681337 0
-0.0827817 0.0518467 0
-0.0766274 0.038998 0
-0.0724866 0.0283895 0
-0.069698 0.0193736 0
-0.0676004 0.0113031 0
-0.0666105 0.00372405 0
-0.0671449 -0.00381727 0
-0.0688045 -0.0118806 0
-0.0711899 -0.0210256 0
-0.0751773 -0.0316758 0
-0.0816431 -0.0442546 0
-0.0863431 -0.0609206 0
-0.085033 -0.0838322 0
-0.0916306 -0.112384 0
-0.120054 -0.145971 0
-0.139864 -0.17797 0
-0.120622 -0.201755 0
-0.0446059 -0.183435 0
0.105909 -0.0891172 0
0.173314 -0.000679411 0
0 0 0
0 0 0
0.161 -0.00474172 0
0.11047 0.0736141 0
-0.0182927 0.164245 0
-0.0919896 0.196329 0
-0.115516 0.188268 0
-0.0937675 0.158468 0
-0.0605192 0.122015 0
-0.0495466 0.0939926 0
-0.046981 0.0719934 0
-0.0389534 0.0536076 0
-0.029762 0.0389087 0
-0.0237051 0.02797 0
-0.0197369 0.0192179 0
-0.0168115 0.0110786 0
-0.0153558 0.00323875 0
-0.0157967 -0.00461518 0
-0.0177381 -0.0127224 0
-0.0207841 -0.021322 0
-0.0261689 -0.0321072 0
-0.0351267 -0.0467711 0
-0.0430133 -0.0652959 0
-0.0451849 -0.0876637 0
-0.0582435 -0.118362 0
-0.0987913 -0.161879 0
-0.12221 -0.195349 0
-0.0838799 -0.195908 0
0.00158467 -0.159879 0
0.119571 -0.0835854 0
0.156802 -0.0144761 0
0 0 0
0 0 0
0.0794152 0.0445084 0
0.101302 0.0670886 0
0.0737579 0.0884894 0
0.0048818 0.129459 0
-0.0517933 0.158537 0
-0.0427343 0.144262 0
-0.00795244 0.111337 0
0.0125411 0.0844639 0
0.0259073 0.0628755 0
0.039307 0.045803 0
0.0508213 0.0328031 0
0.0585311 0.0234326 0
0.0636692 0.0161094 0
0.0674682 0.00925113 0
0.0694263 0.00258065 0
0.0690416 -0.00417929 0
0.0667277 -0.0110171 0
0.0628984 -0.0179213 0
0.0564479 -0.0270163 0
0.0462699 -0.0404266 0
0.0334734 -0.0576165 0
0.0191669 -0.0780504 0
-0.00216724 -0.104364 0
-0.0360469 -0.139192 0
-0.0412215 -0.155055 0
0.0235593 -0.124471 0
0.0955424 -0.0852304 0
0.111975 -0.07512 0
0.0783098 -0.0585675 0
0 0 0
0 0 0
0.0217692 0.0793847 0
0.108214 0.0557816 0
0.174305 0.0152091 0
0.135012 0.0436858 0
0.0722245 0.0852189 0
0.0678337 0.0838156 0
0.0910986 0.0616436 0
0.111278 0.0408706 0
0.127935 0.0242966 0
0.140631 0.014722 0
0.149922 0.00959373 0
0.156364 0.00635919 0
0.16084 0.00441209 0
0.164236 0.00314617 0
0.166065 0.00219255 0
0.165844 0.00118235 0
0.163988 -4.22153e-05 0
0.160915 -0.00163893 0
0.155962 -0.0046854 0
0.148465 -0.0102592 0
0.136542 -0.0200152 0
0.11831 -0.035608 0
0.0990022 -0.0540662 0
0.0838527 -0.0724184 0
0.0958642 -0.0728488 0
0.158039 -0.0375418 0
0.191257 -0.0170202 0
0.116396 -0.061807 0
0.0228466 -0.0850757 0
0 0 0
2.77334e-30 0 0
0.0736161 0.0446829 0
0.160704 0.0379606 0
0.233028 0.00909618 0
0.262351 -0.0126475 0
0.266811 -0.0283297 0
0.264548 -0.03901 0
0.25989 -0.0474441 0
0.257169 -0.0563878 0
0.255412 -0.0602267 0
0.253649 -0.0533464 0
0.252338 -0.0418069 0
0.251934 -0.0316684 0
0.252097 -0.02151 0
0.252489 -0.00991068 0
0.25289 0.00251727 0
0.253085 0.0151617 0
0.253439 0.0269251 0
0.254323 0.0367098 0
0.255661 0.0466032 0
0.257377 0.0586928 0
0.259619 0.0653754 0
0.262532 0.0590479 0
0.267669 0.0488534 0
0.27658 0.0439349 0
0.281811 0.0355074 0
0.275904 0.0147854 0
0.242718 -0.0127786 0
0.166108 -0.0417321 0
0.0754206 -0.0461233 0
2.77334e-30 0 0
0.25 0 0
0.358509 -0.00123321 0
0.408167 0.0179316 0
0.443676 0.0205575 0
0.509735 -0.0302922 0
0.565044 -0.0880792 0
0.568304 -0.106265 0
0.546749 -0.104976 0
0.52761 -0.104336 0
0.51166 -0.0989178 0
0.49967 -0.0832907 0
0.49129 -0.0641033 0
0.48617 -0.0480036 0
0.483223 -0.0326497 0
0.481364 -0.0156994 0
0.480627 0.00222851 0
0.481043 0.0205154 0
0.482853 0.0376755 0
0.486294 0.0522233 0
0.491642 0.0678362 0
0.499168 0.0881918 0
0.511254 0.103674 0
0.53028 0.104667 0
0.551959 0.101255 0
0.572006 0.103523 0
0.566547 0.0873462 0
0.511707 0.028602 0
0.446705 -0.0234553 0
0.41076 -0.0195712 0
0.359862 0.00124893 0
0.25 0 0
1 0 0
1 0 0
1 0 0
1 0 0
1 0 0
1 0 0
1 0 0
1 0 0
1 0 0
1 0 0
1 0 0
1 0 0
1 0 0
1 0 0
1 0 0
1 0 0
1 0 0
1 0 0
1 0 0
1 0 0
1 0 0
1 0 0