<?xml version="1.0"?>
<VTKFile type="UnstructuredGrid">
  <UnstructuredGrid>
  <Piece NumberOfPoints="5265"  NumberOfCells="1280">
    <Points>
      <DataArray type="Float64" NumberOfComponents="3" format="ascii">
0 0 0
0.25 0 0
0.5 0 0
0.75 0 0
1 0 0
1.25 0 0
1.5 0 0
1.75 0 0
2 0 0
2.25 0 0
2.5 0 0
2.75 0 0
3 0 0
3.25 0 0
3.5 0 0
3.75 0 0
4 0 0
4.25 0 0
4.5 0 0
4.75 0 0
5 0 0
5.25 0 0
5.5 0 0
5.75 0 0
6 0 0
6.25 0 0
6.5 0 0
6.75 0 0
7 0 0
7.25 0 0
7.5 0 0
7.75 0 0
8 0 0
8.25 0 0
8.5 0 0
8.75 0 0
9 0 0
9.25 0 0
9.5 0 0
9.75 0 0
10 0 0
10.25 0 0
10.5 0 0
10.75 0 0
11 0 0
11.25 0 0
11.5 0 0
11.75 0 0
12 0 0
12.25 0 0
12.5 0 0
12.75 0 0
13 0 0
13.25 0 0
13.5 0 0
13.75 0 0
14 0 0
14.25 0 0
14.5 0 0
14.75 0 0
15 0 0
15.25 0 0
15.5 0 0
15.75 0 0
16 0 0
16.25 0 0
16.5 0 0
16.75 0 0
17 0 0
17.25 0 0
17.5 0 0
17.75 0 0
18 0 0
18.25 0 0
18.5 0 0
18.75 0 0
19 0 0
19.25 0 0
19.5 0 0
19.75 0 0
20 0 0
0 0.25 0
0.25 0.25 0
0.5 0.25 0
0.75 0.25 0
1 0.25 0
1.25 0.25 0
1.5 0.25 0
1.75 0.25 0
2 0.25 0
2.25 0.25 0
2.5 0.25 0
2.75 0.25 0
3 0.25 0
3.25 0.25 0
3.5 0.25 0
3.75 0.25 0
4 0.25 0
4.25 0.25 0
4.5 0.25 0
4.75 0.25 0
5 0.25 0
5.25 0.25 0
5.5 0.25 0
5.75 0.25 0
6 0.25 0
6.25 0.25 0
6.5 0.25 0
6.75 0.25 0
7 0.25 0
7.25 0.25 0
7.5 0.25 0
7.75 0.25 0
8 0.25 0
8.25 0.25 0
8.5 0.25 0
8.75 0.25 0
9 0.25 0
9.25 0.25 0
9.5 0.25 0
9.75 0.25 0
10 0.25 0
10.25 0.25 0
10.5 0.25 0
10.75 0.25 0
11 0.25 0
11.25 0.25 0
11.5 0.25 0
11.75 0.25 0
12 0.25 0
12.25 0.25 0
12.5 0.25 0
12.75 0.25 0
13 0.25 0
13.25 0.25 0
13.5 0.25 0
13.75 0.25 0
14 0.25 0
14.25 0.25 0
14.5 0.25 0
14.75 0.25 0
15 0.25 0
15.25 0.25 0
15.5 0.25 0
15.75 0.25 0
16 0.25 0
16.25 0.25 0
16.5 0.25 0
16.75 0.25 0
17 0.25 0
17.25 0.25 0
17.5 0.25 0
17.75 0.25 0
18 0.25 0
18.25 0.25 0
18.5 0.25 0
18.75 0.25 0
19 0.25 0
19.25 0.25 0
19.5 0.25 0
19.75 0.25 0
20 0.25 0
0 0.5 0
0.25 0.5 0
0.5 0.5 0
0.75 0.5 0
1 0.5 0
1.25 0.5 0
1.5 0.5 0
1.75 0.5 0
2 0.5 0
2.25 0.5 0
2.5 0.5 0
2.75 0.5 0
3 0.5 0
3.25 0.5 0
3.5 0.5 0
3.75 0.5 0
4 0.5 0
4.25 0.5 0
4.5 0.5 0
4.75 0.5 0
5 0.5 0
5.25 0.5 0
5.5 0.5 0
5.75 0.5 0
6 0.5 0
6.25 0.5 0
6.5 0.5 0
6.75 0.5 0
7 0.5 0
7.25 0.5 0
7.5 0.5 0
7.75 0.5 0
8 0.5 0
8.25 0.5 0
8.5 0.5 0
8.75 0.5 0
9 0.5 0
9.25 0.5 0
9.5 0.5 0
9.75 0.5 0
10 0.5 0
10.25 0.5 0
10.5 0.5 0
10.75 0.5 0
11 0.5 0
11.25 0.5 0
11.5 0.5 0
11.75 0.5 0
12 0.5 0
12.25 0.5 0
12.5 0.5 0
12.75 0.5 0
13 0.5 0
13.25 0.5 0
13.5 0.5 0
13.75 0.5 0
14 0.5 0
14.25 0.5 0
14.5 0.5 0
14.75 0.5 0
15 0.5 0
15.25 0.5 0
15.5 0.5 0
15.75 0.5 0
16 0.5 0
16.25 0.5 0
16.5 0.5 0
16.75 0.5 0
17 0.5 0
17.25 0.5 0
17.5 0.5 0
17.75 0.5 0
18 0.5 0
18.25 0.5 0
18.5 0.5 0
18.75 0.5 0
19 0.5 0
19.25 0.5 0
19.5 0.5 0
19.75 0.5 0
20 0.5 0
0 0.75 0
0.25 0.75 0
0.5 0.75 0
0.75 0.75 0
1 0.75 0
1.25 0.75 0
1.5 0.75 0
1.75 0.75 0
2 0.75 0
2.25 0.75 0
2.5 0.75 0
2.75 0.75 0
3 0.75 0
3.25 0.75 0
3.5 0.75 0
3.75 0.75 0
4 0.75 0
4.25 0.75 0
4.5 0.75 0
4.75 0.75 0
5 0.75 0
5.25 0.75 0
5.5 0.75 0
5.75 0.75 0
6 0.75 0
6.25 0.75 0
6.5 0.75 0
6.75 0.75 0
7 0.75 0
7.25 0.75 0
7.5 0.75 0
7.75 0.75 0
8 0.75 0
8.25 0.75 0
8.5 0.75 0
8.75 0.75 0
9 0.75 0
9.25 0.75 0
9.5 0.75 0
9.75 0.75 0
10 0.75 0
10.25 0.75 0
10.5 0.75 0
10.75 0.75 0
11 0.75 0
11.25 0.75 0
11.5 0.75 0
11.75 0.75 0
12 0.75 0
12.25 0.75 0
12.5 0.75 0
12.75 0.75 0
13 0.75 0
13.25 0.75 0
13.5 0.75 0
13.75 0.75 0
14 0.75 0
14.25 0.75 0
14.5 0.75 0
14.75 0.75 0
15 0.75 0
15.25 0.75 0
15.5 0.75 0
15.75 0.75 0
16 0.75 0
16.25 0.75 0
16.5 0.75 0
16.75 0.75 0
17 0.75 0
17.25 0.75 0
17.5 0.75 0
17.75 0.75 0
18 0.75 0
18.25 0.75 0
18.5 0.75 0
18.75 0.75 0
19 0.75 0
19.25 0.75 0
19.5 0.75 0
19.75 0.75 0
20 0.75 0
0 1 0
0.25 1 0
0.5 1 0
0.75 1 0
1 1 0
1.25 1 0
1.5 1 0
1.75 1 0
2 1 0
2.25 1 0
2.5 1 0
2.75 1 0
3 1 0
3.25 1 0
3.5 1 0
3.75 1 0
4 1 0
4.25 1 0
4.5 1 0
4.75 1 0
5 1 0
5.25 1 0
5.5 1 0
5.75 1 0
6 1 0
6.25 1 0
6.5 1 0
6.75 1 0
7 1 0
7.25 1 0
7.5 1 0
7.75 1 0
8 1 0
8.25 1 0
8.5 1 0
8.75 1 0
9 1 0
9.25 1 0
9.5 1 0
9.75 1 0
10 1 0
10.25 1 0
10.5 1 0
10.75 1 0
11 1 0
11.25 1 0
11.5 1 0
11.75 1 0
12 1 0
12.25 1 0
12.5 1 0
12.75 1 0
13 1 0
13.25 1 0
13.5 1 0
13.75 1 0
14 1 0
14.25 1 0
14.5 1 0
14.75 1 0
15 1 0
15.25 1 0
15.5 1 0
15.75 1 0
16 1 0
16.25 1 0
16.5 1 0
16.75 1 0
17 1 0
17.25 1 0
17.5 1 0
17.75 1 0
18 1 0
18.25 1 0
18.5 1 0
18.75 1 0
19 1 0
19.25 1 0
19.5 1 0
19.75 1 0
20 1 0
0 1.25 0
0.25 1.25 0
0.5 1.25 0
0.75 1.25 0
1 1.25 0
1.25 1.25 0
1.5 1.25 0
1.75 1.25 0
2 1.25 0
2.25 1.25 0
2.5 1.25 0
2.75 1.25 0
3 1.25 0
3.25 1.25 0
3.5 1.25 0
3.75 1.25 0
4 1.25 0
4.25 1.25 0
4.5 1.25 0
4.75 1.25 0
5 1.25 0
5.25 1.25 0
5.5 1.25 0
5.75 1.25 0
6 1.25 0
6.25 1.25 0
6.5 1.25 0
6.75 1.25 0
7 1.25 0
7.25 1.25 0
7.5 1.25 0
7.75 1.25 0
8 1.25 0
8.25 1.25 0
8.5 1.25 0
8.75 1.25 0
9 1.25 0
9.25 1.25 0
9.5 1.25 0
9.75 1.25 0
10 1.25 0
10.25 1.25 0
10.5 1.25 0
10.75 1.25 0
11 1.25 0
11.25 1.25 0
11.5 1.25 0
11.75 1.25 0
12 1.25 0
12.25 1.25 0
12.5 1.25 0
12.75 1.25 0
13 1.25 0
13.25 1.25 0
13.5 1.25 0
13.75 1.25 0
14 1.25 0
14.25 1.25 0
14.5 1.25 0
14.75 1.25 0
15 1.25 0
15.25 1.25 0
15.5 1.25 0
15.75 1.25 0
16 1.25 0
16.25 1.25 0
16.5 1.25 0
16.75 1.25 0
17 1.25 0
17.25 1.25 0
17.5 1.25 0
17.75 1.25 0
18 1.25 0
18.25 1.25 0
18.5 1.25 0
18.75 1.25 0
19 1.25 0
19.25 1.25 0
19.5 1.25 0
19.75 1.25 0
20 1.25 0
0 1.5 0
0.25 1.5 0
0.5 1.5 0
0.75 1.5 0
1 1.5 0
1.25 1.5 0
1.5 1.5 0
1.75 1.5 0
2 1.5 0
2.25 1.5 0
2.5 1.5 0
2.75 1.5 0
3 1.5 0
3.25 1.5 0
3.5 1.5 0
3.75 1.5 0
4 1.5 0
4.25 1.5 0
4.5 1.5 0
4.75 1.5 0
5 1.5 0
5.25 1.5 0
5.5 1.5 0
5.75 1.5 0
6 1.5 0
6.25 1.5 0
6.5 1.5 0
6.75 1.5 0
7 1.5 0
7.25 1.5 0
7.5 1.5 0
7.75 1.5 0
8 1.5 0
8.25 1.5 0
8.5 1.5 0
8.75 1.5 0
9 1.5 0
9.25 1.5 0
9.5 1.5 0
9.75 1.5 0
10 1.5 0
10.25 1.5 0
10.5 1.5 0
10.75 1.5 0
11 1.5 0
11.25 1.5 0
11.5 1.5 0
11.75 1.5 0
12 1.5 0
12.25 1.5 0
12.5 1.5 0
12.75 1.5 0
13 1.5 0
13.25 1.5 0
13.5 1.5 0
13.75 1.5 0
14 1.5 0
14.25 1.5 0
14.5 1.5 0
14.75 1.5 0
15 1.5 0
15.25 1.5 0
15.5 1.5 0
15.75 1.5 0
16 1.5 0
16.25 1.5 0
16.5 1.5 0
16.75 1.5 0
17 1.5 0
17.25 1.5 0
17.5 1.5 0
17.75 1.5 0
18 1.5 0
18.25 1.5 0
18.5 1.5 0
18.75 1.5 0
19 1.5 0
19.25 1.5 0
19.5 1.5 0
19.75 1.5 0
20 1.5 0
0 1.75 0
0.25 1.75 0
0.5 1.75 0
0.75 1.75 0
1 1.75 0
1.25 1.75 0
1.5 1.75 0
1.75 1.75 0
2 1.75 0
2.25 1.75 0
2.5 1.75 0
2.75 1.75 0
3 1.75 0
3.25 1.75 0
3.5 1.75 0
3.75 1.75 0
4 1.75 0
4.25 1.75 0
4.5 1.75 0
4.75 1.75 0
5 1.75 0
5.25 1.75 0
5.5 1.75 0
5.75 1.75 0
6 1.75 0
6.25 1.75 0
6.5 1.75 0
6.75 1.75 0
7 1.75 0
7.25 1.75 0
7.5 1.75 0
7.75 1.75 0
8 1.75 0
8.25 1.75 0
8.5 1.75 0
8.75 1.75 0
9 1.75 0
9.25 1.75 0
9.5 1.75 0
9.75 1.75 0
10 1.75 0
10.25 1.75 0
10.5 1.75 0
10.75 1.75 0
11 1.75 0
11.25 1.75 0
11.5 1.75 0
11.75 1.75 0
12 1.75 0
12.25 1.75 0
12.5 1.75 0
12.75 1.75 0
13 1.75 0
13.25 1.75 0
13.5 1.75 0
13.75 1.75 0
14 1.75 0
14.25 1.75 0
14.5 1.75 0
14.75 1.75 0
15 1.75 0
15.25 1.75 0
15.5 1.75 0
15.75 1.75 0
16 1.75 0
16.25 1.75 0
16.5 1.75 0
16.75 1.75 0
17 1.75 0
17.25 1.75 0
17.5 1.75 0
17.75 1.75 0
18 1.75 0
18.25 1.75 0
18.5 1.75 0
18.75 1.75 0
19 1.75 0
19.25 1.75 0
19.5 1.75 0
19.75 1.75 0
20 1.75 0
0 2 0
0.25 2 0
0.5 2 0
0.75 2 0
1 2 0
1.25 2 0
1.5 2 0
1.75 2 0
2 2 0
2.25 2 0
2.5 2 0
2.75 2 0
3 2 0
3.25 2 0
3.5 2 0
3.75 2 0
4 2 0
4.25 2 0
4.5 2 0
4.75 2 0
5 2 0
5.25 2 0
5.5 2 0
5.75 2 0
6 2 0
6.25 2 0
6.5 2 0
6.75 2 0
7 2 0
7.25 2 0
7.5 2 0
7.75 2 0
8 2 0
8.25 2 0
8.5 2 0
8.75 2 0
9 2 0
9.25 2 0
9.5 2 0
9.75 2 0
10 2 0
10.25 2 0
10.5 2 0
10.75 2 0
11 2 0
11.25 2 0
11.5 2 0
11.75 2 0
12 2 0
12.25 2 0
12.5 2 0
12.75 2 0
13 2 0
13.25 2 0
13.5 2 0
13.75 2 0
14 2 0
14.25 2 0
14.5 2 0
14.75 2 0
15 2 0
15.25 2 0
15.5 2 0
15.75 2 0
16 2 0
16.25 2 0
16.5 2 0
16.75 2 0
17 2 0
17.25 2 0
17.5 2 0
17.75 2 0
18 2 0
18.25 2 0
18.5 2 0
18.75 2 0
19 2 0
19.25 2 0
19.5 2 0
19.75 2 0
20 2 0
0 2.25 0
0.25 2.25 0
0.5 2.25 0
0.75 2.25 0
1 2.25 0
1.25 2.25 0
1.5 2.25 0
1.75 2.25 0
2 2.25 0
2.25 2.25 0
2.5 2.25 0
2.75 2.25 0
3 2.25 0
3.25 2.25 0
3.5 2.25 0
3.75 2.25 0
4 2.25 0
4.25 2.25 0
4.5 2.25 0
4.75 2.25 0
5 2.25 0
5.25 2.25 0
5.5 2.25 0
5.75 2.25 0
6 2.25 0
6.25 2.25 0
6.5 2.25 0
6.75 2.25 0
7 2.25 0
7.25 2.25 0
7.5 2.25 0
7.75 2.25 0
8 2.25 0
8.25 2.25 0
8.5 2.25 0
8.75 2.25 0
9 2.25 0
9.25 2.25 0
9.5 2.25 0
9.75 2.25 0
10 2.25 0
10.25 2.25 0
10.5 2.25 0
10.75 2.25 0
11 2.25 0
11.25 2.25 0
11.5 2.25 0
11.75 2.25 0
12 2.25 0
12.25 2.25 0
12.5 2.25 0
12.75 2.25 0
13 2.25 0
13.25 2.25 0
13.5 2.25 0
13.75 2.25 0
14 2.25 0
14.25 2.25 0
14.5 2.25 0
14.75 2.25 0
15 2.25 0
15.25 2.25 0
15.5 2.25 0
15.75 2.25 0
16 2.25 0
16.25 2.25 0
16.5 2.25 0
16.75 2.25 0
17 2.25 0
17.25 2.25 0
17.5 2.25 0
17.75 2.25 0
18 2.25 0
18.25 2.25 0
18.5 2.25 0
18.75 2.25 0
19 2.25 0
19.25 2.25 0
19.5 2.25 0
19.75 2.25 0
20 2.25 0
0 2.5 0
0.25 2.5 0
0.5 2.5 0
0.75 2.5 0
1 2.5 0
1.25 2.5 0
1.5 2.5 0
1.75 2.5 0
2 2.5 0
2.25 2.5 0
2.5 2.5 0
2.75 2.5 0
3 2.5 0
3.25 2.5 0
3.5 2.5 0
3.75 2.5 0
4 2.5 0
4.25 2.5 0
4.5 2.5 0
4.75 2.5 0
5 2.5 0
5.25 2.5 0
5.5 2.5 0
5.75 2.5 0
6 2.5 0
6.25 2.5 0
6.5 2.5 0
6.75 2.5 0
7 2.5 0
7.25 2.5 0
7.5 2.5 0
7.75 2.5 0
8 2.5 0
8.25 2.5 0
8.5 2.5 0
8.75 2.5 0
9 2.5 0
9.25 2.5 0
9.5 2.5 0
9.75 2.5 0
10 2.5 0
10.25 2.5 0
10.5 2.5 0
10.75 2.5 0
11 2.5 0
11.25 2.5 0
11.5 2.5 0
11.75 2.5 0
12 2.5 0
12.25 2.5 0
12.5 2.5 0
12.75 2.5 0
13 2.5 0
13.25 2.5 0
13.5 2.5 0
13.75 2.5 0
14 2.5 0
14.25 2.5 0
14.5 2.5 0
14.75 2.5 0
15 2.5 0
15.25 2.5 0
15.5 2.5 0
15.75 2.5 0
16 2.5 0
16.25 2.5 0
16.5 2.5 0
16.75 2.5 0
17 2.5 0
17.25 2.5 0
17.5 2.5 0
17.75 2.5 0
18 2.5 0
18.25 2.5 0
18.5 2.5 0
18.75 2.5 0
19 2.5 0
19.25 2.5 0
19.5 2.5 0
19.75 2.5 0
20 2.5 0
0 2.75 0
0.25 2.75 0
0.5 2.75 0
0.75 2.75 0
1 2.75 0
1.25 2.75 0
1.5 2.75 0
1.75 2.75 0
2 2.75 0
2.25 2.75 0
2.5 2.75 0
2.75 2.75 0
3 2.75 0
3.25 2.75 0
3.5 2.75 0
3.75 2.75 0
4 2.75 0
4.25 2.75 0
4.5 2.75 0
4.75 2.75 0
5 2.75 0
5.25 2.75 0
5.5 2.75 0
5.75 2.75 0
6 2.75 0
6.25 2.75 0
6.5 2.75 0
6.75 2.75 0
7 2.75 0
7.25 2.75 0
7.5 2.75 0
7.75 2.75 0
8 2.75 0
8.25 2.75 0
8.5 2.75 0
8.75 2.75 0
9 2.75 0
9.25 2.75 0
9.5 2.75 0
9.75 2.75 0
10 2.75 0
10.25 2.75 0
10.5 2.75 0
10.75 2.75 0
11 2.75 0
11.25 2.75 0
11.5 2.75 0
[...]
    <PointData>
      <DataArray type="Float64" NumberOfComponents="3" Name="Velocity" format="ascii">
1 0 0
1.00002 0 0
1.00014 0 0
1.00035 0 0
1.00063 0 0
1.00094 0 0
1.00124 0 0
1.00155 0 0
1.00186 0 0
1.00218 0 0
1.00251 0 0
1.00285 0 0
1.00321 0 0
1.00357 0 0
1.00394 0 0
1.00433 0 0
1.00472 0 0
1.00513 0 0
1.00554 0 0
1.00596 0 0
1.00638 0 0
1.0068 0 0
1.00721 0 0
1.00762 0 0
1.00802 0 0
1.0084 0 0
1.00876 0 0
1.0091 0 0
1.0094 0 0
1.00967 0 0
1.0099 0 0
1.01009 0 0
1.01023 0 0
1.01032 0 0
1.01035 0 0
1.01034 0 0
1.01028 0 0
1.01018 0 0
1.01003 0 0
1.00983 0 0
1.00959 0 0
1.00931 0 0
1.009 0 0
1.00866 0 0
1.00831 0 0
1.00794 0 0
1.00756 0 0
1.00717 0 0
1.00678 0 0
1.00639 0 0
1.00601 0 0
1.00563 0 0
1.00527 0 0
1.00491 0 0
1.00457 0 0
1.00424 0 0
1.00393 0 0
1.00364 0 0
1.00337 0 0
1.00311 0 0
1.00287 0 0
1.00264 0 0
1.00243 0 0
1.00224 0 0
1.00206 0 0
1.0019 0 0
1.00175 0 0
1.00161 0 0
1.00148 0 0
1.00137 0 0
1.00127 0 0
1.00118 0 0
1.00109 0 0
1.00102 0 0
1.00096 0 0
1.0009 0 0
1.00085 0 0
1.00082 0 0
1.00078 0 0
1.00076 0 0
1.00074 0 0
1 0 0
1.00002 -5.72349e-05 0
1.00014 -0.000163306 0
1.00035 -0.000262703 0
1.00063 -0.000299914 0
1.00094 -0.00030389 0
1.00124 -0.00030358 0
1.00154 -0.000305236 0
1.00185 -0.00031511 0
1.00217 -0.000327569 0
1.00251 -0.000336977 0
1.00285 -0.000345925 0
1.0032 -0.000357003 0
1.00356 -0.000368822 0
1.00394 -0.00037999 0
1.00432 -0.000390464 0
1.00472 -0.000400198 0
1.00512 -0.000408611 0
1.00553 -0.000415122 0
1.00595 -0.000419328 0
1.00637 -0.000420828 0
1.0068 -0.000419358 0
1.00722 -0.000414656 0
1.00763 -0.000405977 0
1.00803 -0.000392576 0
1.00841 -0.000373947 0
1.00878 -0.000349583 0
1.00911 -0.000320317 0
1.00942 -0.000286982 0
1.00969 -0.000249969 0
1.00992 -0.000209672 0
1.01011 -0.00016554 0
1.01025 -0.000117022 0
1.01035 -6.59003e-05 0
1.01039 -1.39605e-05 0
1.01038 3.72019e-05 0
1.01031 8.5991e-05 0
1.0102 0.000132619 0
1.01004 0.000177297 0
1.00984 0.000219598 0
1.0096 0.000259096 0
1.00932 0.000294152 0
1.00902 0.00032313 0
1.00868 0.000346481 0
1.00832 0.000364653 0
1.00795 0.00037805 0
1.00756 0.000387078 0
1.00717 0.000391723 0
1.00678 0.000391975 0
1.00639 0.000388366 0
1.006 0.000381431 0
1.00562 0.000371905 0
1.00525 0.000360524 0
1.0049 0.000347476 0
1.00456 0.000332945 0
1.00423 0.000317273 0
1.00392 0.0003008 0
1.00363 0.000283872 0
1.00336 0.000266839 0
1.0031 0.000249874 0
1.00286 0.000233153 0
1.00263 0.000216793 0
1.00242 0.00020091 0
1.00223 0.000185586 0
1.00205 0.000170905 0
1.00189 0.000156883 0
1.00174 0.000143539 0
1.0016 0.000130872 0
1.00148 0.000118881 0
1.00136 0.000107536 0
1.00126 9.68086e-05 0
1.00117 8.66707e-05 0
1.00109 7.7094e-05 0
1.00102 6.80173e-05 0
1.00095 5.93798e-05 0
1.0009 5.11584e-05 0
1.00085 4.333e-05 0
1.00081 3.58057e-05 0
1.00078 2.84967e-05 0
1.00075 2.14214e-05 0
1.00074 1.45981e-05 0
1 0 0
1.00002 -0.000114249 0
1.00014 -0.000325816 0
1.00034 -0.000524043 0
1.00062 -0.000598277 0
1.00093 -0.000606276 0
1.00123 -0.000605799 0
1.00153 -0.000609281 0
1.00184 -0.000629157 0
1.00216 -0.000654211 0
1.00249 -0.000673231 0
1.00283 -0.000691378 0
1.00318 -0.000713817 0
1.00354 -0.00073779 0
1.00392 -0.000760541 0
1.00431 -0.000781891 0
1.0047 -0.000801662 0
1.00511 -0.000818948 0
1.00553 -0.000832843 0
1.00595 -0.000842348 0
1.00638 -0.00084646 0
1.0068 -0.00084396 0
1.00723 -0.00083363 0
1.00765 -0.000814849 0
1.00805 -0.000786997 0
1.00844 -0.000749923 0
1.00881 -0.000703475 0
1.00916 -0.000647257 0
1.00947 -0.000580872 0
1.00975 -0.00050535 0
1.00999 -0.000421719 0
1.01018 -0.000331199 0
1.01032 -0.000235009 0
1.01042 -0.000134678 0
1.01046 -3.17384e-05 0
1.01045 7.18179e-05 0
1.01039 0.000173997 0
1.01028 0.000272003 0
1.01011 0.00036304 0
1.0099 0.000446784 0
1.00965 0.000522908 0
1.00937 0.000590381 0
1.00905 0.00064817 0
1.00871 0.000695904 0
1.00834 0.000733212 0
1.00796 0.000760401 0
1.00757 0.000777781 0
1.00718 0.000786332 0
1.00678 0.000787037 0
1.00638 0.000780417 0
1.00599 0.000766992 0
1.00561 0.000747895 0
1.00524 0.000724258 0
1.00488 0.000697013 0
1.00454 0.000667092 0
1.00421 0.000635179 0
1.0039 0.000601959 0
1.00361 0.000567941 0
1.00333 0.000533633 0
1.00307 0.000499462 0
1.00283 0.000465855 0
1.00261 0.000433031 0
1.0024 0.000401209 0
1.00221 0.00037053 0
1.00203 0.000341134 0
1.00187 0.000313068 0
1.00172 0.000286379 0
1.00158 0.00026106 0
1.00146 0.000237103 0
1.00135 0.000214447 0
1.00125 0.000193028 0
1.00116 0.000172791 0
1.00108 0.000153682 0
1.001 0.000135576 0
1.00094 0.000118349 0
1.00089 0.000101956 0
1.00084 8.6349e-05 0
1.0008 7.13502e-05 0
1.00077 5.67813e-05 0
1.00074 4.26772e-05 0
1.00073 2.90727e-05 0
1 0 0
1.00002 -0.000170738 0
1.00014 -0.000486665 0
1.00034 -0.000782655 0
1.00062 -0.000893582 0
1.00092 -0.000905717 0
1.00122 -0.000905331 0
1.00151 -0.000910927 0
1.00182 -0.000941008 0
1.00214 -0.000978919 0
1.00246 -0.001008 0
1.0028 -0.00103589 0
1.00315 -0.0010702 0
1.00352 -0.00110691 0
1.00389 -0.00114196 0
1.00428 -0.001175 0
1.00468 -0.00120569 0
1.00509 -0.00123279 0
1.00551 -0.00125508 0
1.00594 -0.0012708 0
1.00638 -0.00127822 0
1.00681 -0.00127541 0
1.00724 -0.00126044 0
1.00767 -0.00123262 0
1.00809 -0.00119124 0
1.00849 -0.00113637 0
1.00888 -0.00106806 0
1.00923 -0.000984679 0
1.00956 -0.000884565 0
1.00985 -0.00076938 0
1.0101 -0.00064078 0
1.0103 -0.000501912 0
1.01045 -0.00035592 0
1.01054 -0.000204567 0
1.01059 -4.96125e-05 0
1.01058 0.000107224 0
1.01052 0.000264225 0
1.0104 0.000415571 0
1.01023 0.000555443 0
1.01001 0.000682927 0
1.00974 0.000797107 0
1.00944 0.000897641 0
1.00911 0.000984187 0
1.00876 0.00105596 0
1.00838 0.00111219 0
1.00799 0.00115281 0
1.00759 0.00117775 0
1.00718 0.00118911 0
1.00677 0.00118902 0
1.00637 0.0011782 0
1.00597 0.00115739 0
1.00558 0.00112801 0
1.00521 0.00109145 0
1.00484 0.00104933 0
1.0045 0.00100329 0
1.00417 0.000954426 0
1.00386 0.000903855 0
1.00356 0.000852242 0
1.00329 0.000800254 0
1.00303 0.000748543 0
1.00279 0.000697764 0
1.00257 0.000648247 0
1.00236 0.000600326 0
1.00217 0.000554185 0
1.00199 0.000510012 0
1.00183 0.000467875 0
1.00169 0.000427839 0
1.00155 0.00038989 0
1.00143 0.000354011 0
1.00132 0.000320102 0
1.00122 0.000288064 0
1.00113 0.000257811 0
1.00105 0.000229256 0
1.00098 0.000202213 0
1.00092 0.000176495 0
1.00087 0.000152029 0
1.00082 0.000128744 0
1.00078 0.000106372 0
1.00075 8.46459e-05 0
1.00073 6.36147e-05 0
1.00071 4.33288e-05 0
1 0 0
1.00002 -0.000226394 0
1.00014 -0.000644991 0
1.00033 -0.00103717 0
1.0006 -0.00118432 0
1.0009 -0.00120077 0
1.00119 -0.00120085 0
1.00149 -0.00120897 0
1.00179 -0.00124953 0
1.0021 -0.00130068 0
1.00243 -0.00134053 0
1.00276 -0.00137898 0
1.00311 -0.00142593 0
1.00347 -0.00147618 0
1.00385 -0.00152455 0
1.00424 -0.00157051 0
1.00464 -0.00161358 0
1.00506 -0.00165193 0
1.00549 -0.00168373 0
1.00593 -0.00170642 0
1.00637 -0.00171742 0
1.00682 -0.0017153 0
1.00726 -0.00169862 0
1.00771 -0.00166531 0
1.00815 -0.00161329 0
1.00857 -0.00154172 0
1.00897 -0.00144974 0
1.00935 -0.00133644 0
1.00969 -0.00120095 0
1.00999 -0.00104529 0
1.01025 -0.000871494 0
1.01047 -0.000682615 0
1.01063 -0.000481715 0
1.01073 -0.000273797 0
1.01077 -6.38617e-05 0
1.01076 0.000146796 0
1.01069 0.000356883 0
1.01056 0.000560743 0
1.01038 0.000752721 0
1.01016 0.0009294 0
1.00988 0.00108736 0
1.00956 0.00122489 0
1.00921 0.00134025 0
1.00884 0.00143436 0
1.00844 0.00150811 0
1.00803 0.00156102 0
1.00761 0.00159261 0
1.00718 0.00160536 0
1.00676 0.00160175 0
1.00634 0.00158376 0
1.00593 0.00155334 0
1.00554 0.00151228 0
1.00516 0.00146234 0
1.00479 0.00140516 0
1.00444 0.00134239 0
1.00411 0.00127572 0
1.0038 0.00120686 0
1.0035 0.00113681 0
1.00323 0.00106657 0
1.00297 0.000996895 0
1.00273 0.000928538 0
1.00251 0.000861975 0
1.00231 0.000797686 0
1.00212 0.000735904 0
1.00194 0.000676863 0
1.00179 0.000620622 0
1.00164 0.000567238 0
1.00151 0.000516686 0
1.00139 0.000468945 0
1.00128 0.000423873 0
1.00118 0.000381325 0
1.0011 0.000341179 0
1.00102 0.000303309 0
1.00095 0.000267466 0
1.00089 0.000233402 0
1.00084 0.000201015 0
1.00079 0.000170203 0
1.00076 0.000140611 0
1.00073 0.000111882 0
1.0007 8.40811e-05 0
1.00069 5.72713e-05 0
1 0 0
1.00002 -0.000280906 0
1.00013 -0.000799877 0
1.00033 -0.00128611 0
1.00059 -0.0014688 0
1.00088 -0.00148976 0
1.00117 -0.00149078 0
1.00145 -0.00150197 0
1.00175 -0.00155342 0
1.00206 -0.00161831 0
1.00238 -0.00166982 0
1.00271 -0.00171987 0
1.00306 -0.00178039 0
1.00342 -0.00184533 0
1.0038 -0.00190864 0
1.00419 -0.00196932 0
1.0046 -0.00202639 0
1.00502 -0.00207771 0
1.00545 -0.00212116 0
1.0059 -0.00215315 0
1.00636 -0.00217008 0
1.00682 -0.00217103 0
1.00729 -0.00215509 0
1.00776 -0.0021182 0
1.00822 -0.00205633 0
1.00867 -0.00196789 0
1.00909 -0.00185132 0
1.00949 -0.00170688 0
1.00985 -0.00153486 0
1.01017 -0.00133796 0
1.01046 -0.00111889 0
1.01069 -0.000878909 0
1.01086 -0.000619283 0
1.01098 -0.000349009 0
1.01102 -7.70823e-05 0
1.011 0.000193791 0
1.01092 0.000460906 0
1.01078 0.000719356 0
1.01059 0.000964233 0
1.01034 0.001191 0
1.01005 0.0013951 0
1.00971 0.00157214 0
1.00934 0.0017177 0
1.00893 0.00183439 0
1.00851 0.00192483 0
1.00808 0.00198882 0
1.00763 0.00202617 0
1.00719 0.00203935 0
1.00674 0.00203079 0
1.00631 0.00200365 0
1.00589 0.00196106 0
1.00548 0.00190567 0
1.00509 0.00184014 0
1.00472 0.00176607 0
1.00436 0.00168507 0
1.00403 0.00159932 0
1.00372 0.001511 0
1.00342 0.00142147 0
1.00315 0.00133214 0
1.00289 0.00124383 0
1.00265 0.0011574 0
1.00244 0.00107342 0
1.00223 0.000992487 0
1.00205 0.000914873 0
1.00188 0.000840858 0
1.00172 0.000770477 0
1.00158 0.00070377 0
1.00145 0.000640689 0
1.00134 0.00058119 0
1.00123 0.000525083 0
1.00114 0.000472181 0
1.00105 0.000422314 0
1.00098 0.000375313 0
1.00091 0.000330864 0
1.00085 0.000288652 0
1.0008 0.000248545 0
1.00076 0.00021041 0
1.00072 0.000173803 0
1.00069 0.000138279 0
1.00067 0.000103915 0
1.00066 7.0786e-05 0
1 0 0
1.00002 -0.000333959 0
1.00013 -0.000950408 0
1.00032 -0.00152798 0
1.00057 -0.00174531 0
1.00085 -0.00177097 0
1.00113 -0.00177355 0
1.00141 -0.00178852 0
1.0017 -0.00185136 0
1.002 -0.00193063 0
1.00231 -0.00199488 0
1.00264 -0.00205778 0
1.00299 -0.00213299 0
1.00335 -0.00221407 0
1.00373 -0.00229456 0
1.00412 -0.00237231 0
1.00453 -0.00244516 0
1.00496 -0.0025115 0
1.00541 -0.00256972 0
1.00587 -0.00261492 0
1.00635 -0.00264219 0
1.00684 -0.00264998 0
1.00733 -0.00263678 0
1.00782 -0.00259661 0
1.0083 -0.00252353 0
1.00878 -0.00241678 0
1.00923 -0.00227563 0
1.00966 -0.00210031 0
1.01005 -0.00189111 0
1.0104 -0.00165226 0
1.01071 -0.001388 0
1.01096 -0.00109639 0
1.01116 -0.000775513 0
1.01128 -0.000436842 0
1.01134 -9.18707e-05 0
1.01132 0.000251465 0
1.01123 0.00058523 0
1.01106 0.000903248 0
1.01084 0.00119934 0
1.01057 0.00147251 0
1.01024 0.00172176 0
1.00988 0.00193943 0
1.00948 0.00211787 0
1.00904 0.00225937 0
1.0086 0.00236622 0
1.00813 0.00243998 0
1.00767 0.00248223 0
1.0072 0.00249535 0
1.00674 0.00248168 0
1.00628 0.00244443 0
1.00584 0.00238675 0
1.00542 0.00231314 0
1.00501 0.00222806 0
1.00463 0.00213366 0
1.00427 0.00203205 0
1.00393 0.0019255 0
1.00362 0.00181627 0
1.00332 0.00170605 0
1.00305 0.0015965 0
1.00279 0.00148866 0
1.00256 0.00138356 0
1.00234 0.00128179 0
1.00215 0.00118393 0
1.00197 0.00109028 0
1.0018 0.00100116 0
1.00165 0.000916606 0
1.00151 0.000836633 0
1.00139 0.000761141 0
1.00127 0.000690028 0
1.00117 0.00062306 0
1.00108 0.000560003 0
1.001 0.000500636 0
1.00093 0.000444741 0
1.00086 0.000391932 0
1.00081 0.000341823 0
1.00076 0.00029425 0
1.00072 0.000249047 0
1.00068 0.000205682 0
1.00066 0.000163623 0
1.00064 0.000122954 0
1.00062 8.3759e-05 0
1 0 0
1.00002 -0.000385225 0
1.00012 -0.00109558 0
1.0003 -0.00176114 0
1.00055 -0.00201198 0
1.00082 -0.00204259 0
1.00109 -0.00204748 0
1.00135 -0.00206705 0
1.00164 -0.00214174 0
1.00193 -0.00223601 0
1.00224 -0.00231433 0
1.00256 -0.00239165 0
1.0029 -0.00248288 0
1.00326 -0.00258173 0
1.00364 -0.0026819 0
1.00404 -0.00277944 0
1.00445 -0.00287038 0
1.00489 -0.00295442 0
1.00535 -0.00303124 0
1.00583 -0.00309371 0
1.00633 -0.00313469 0
1.00684 -0.00315209 0
1.00736 -0.00314385 0
1.00788 -0.00310231 0
1.00839 -0.00301985 0
1.0089 -0.00289757 0
1.00939 -0.00273658 0
1.00986 -0.00253377 0
1.0103 -0.00228604 0
1.01069 -0.00199995 0
1.01103 -0.00168206 0
1.01131 -0.00133039 0
1.01151 -0.000942938 0
1.01165 -0.000532496 0
1.01171 -0.000111844 0
1.0117 0.00030894 0
1.0116 0.000719779 0
1.01142 0.00110908 0
1.01117 0.00146523 0
1.01085 0.00179012 0
1.01049 0.00208558 0
1.01008 0.00234311 0
1.00964 0.00255417 0
1.00917 0.00272009 0
1.00869 0.00284219 0
1.00819 0.00292328 0
1.00769 0.00296615 0
1.00719 0.00297462 0
1.00671 0.0029525 0
1.00623 0.0029026 0
1.00578 0.00282775 0
1.00533 0.00273369 0
1.00492 0.00262619 0
1.00453 0.00250845 0
1.00416 0.00238367 0
1.00382 0.00225419 0
1.0035 0.0021224 0
1.0032 0.00199011 0
1.00293 0.00185914 0
1.00268 0.00173077 0
1.00245 0.00160626 0
1.00224 0.00148618 0
1.00204 0.00137105 0
1.00187 0.00126118 0
1.00171 0.00115687 0
1.00156 0.00105813 0
1.00143 0.000964971 0
1.00131 0.000877219 0
1.0012 0.000794689 0
1.0011 0.000717091 0
1.00102 0.000644137 0
1.00094 0.00057555 0
1.00087 0.000511053 0
1.00081 0.000450186 0
1.00076 0.00039249 0
1.00071 0.000337762 0
1.00067 0.000285801 0
1.00064 0.000235989 0
1.00061 0.000187706 0
1.00059 0.000141042 0
1.00058 9.60842e-05 0
1 0 0
1.00002 -0.000434374 0
1.00012 -0.00123439 0
1.00029 -0.00198394 0
1.00052 -0.00226694 0
1.00078 -0.00230279 0
1.00103 -0.00231089 0
1.00129 -0.00233602 0
1.00156 -0.00242295 0
1.00185 -0.00253283 0
1.00215 -0.00262682 0
1.00246 -0.00272043 0
1.0028 -0.0028292 0
1.00315 -0.00294763 0
1.00353 -0.00307024 0
1.00393 -0.00319066 0
1.00435 -0.00330254 0
1.0048 -0.0034076 0
1.00527 -0.00350755 0
1.00577 -0.00359149 0
1.00629 -0.00364851 0
1.00682 -0.00367728 0
1.00737 -0.00367647 0
1.00792 -0.00363711 0
1.00848 -0.00355025 0
1.00903 -0.0034194 0
1.00958 -0.00324807 0
1.01011 -0.00302427 0
1.0106 -0.00273598 0
1.01105 -0.0023928 0
1.01142 -0.00200432 0
1.01172 -0.0015762 0
1.01194 -0.00111409 0
1.01208 -0.000631173 0
1.01215 -0.000140621 0
1.01214 0.000355336 0
1.01204 0.000854474 0
1.01185 0.00133349 0
1.01158 0.00176911 0
1.01122 0.00215999 0
1.01081 0.00250484 0
1.01034 0.00279955 0
1.00985 0.00303999 0
1.00932 0.00322732 0
1.00878 0.00336268 0
1.00823 0.00344752 0
1.00769 0.00348329 0
1.00715 0.00347842 0
1.00664 0.0034413 0
1.00614 0.0033747 0
1.00567 0.00328137 0
1.00522 0.00316633 0
1.00479 0.00303461 0
1.00439 0.002891 0
1.00402 0.0027403 0
1.00367 0.00258537 0
1.00335 0.00242908 0
1.00306 0.0022732 0
1.00279 0.00211954 0
1.00254 0.00196955 0
1.00232 0.00182474 0
1.00211 0.00168567 0
1.00192 0.00155291 0
1.00175 0.00142664 0
1.0016 0.00130706 0
1.00146 0.00119416 0
1.00133 0.00108793 0
1.00122 0.000988103 0
1.00111 0.0008944 0
1.00102 0.000806463 0
1.00094 0.000723931 0
1.00087 0.000646461 0
1.0008 0.00057371 0
1.00075 0.000505143 0
1.0007 0.000440225 0
1.00065 0.00037871 0
1.00062 0.000320357 0
1.00059 0.00026446 0
1.00056 0.000210318 0
1.00054 0.000158019 0
1.00053 0.000107655 0
1 0 0
1.00002 -0.000480974 0
1.00011 -0.00136565 0
1.00027 -0.00219451 0
1.00049 -0.00250803 0
1.00073 -0.00254937 0
1.00097 -0.00256169 0
1.00122 -0.00259338 0
1.00148 -0.00269281 0
1.00175 -0.00281887 0
1.00204 -0.00293044 0
1.00235 -0.00304254 0
1.00267 -0.00317021 0
1.00302 -0.00330996 0
1.0034 -0.00345832 0
1.0038 -0.0036055 0
1.00423 -0.00374172 0
1.00468 -0.00387176 0
1.00517 -0.00400036 0
1.00568 -0.0041112 0
1.00622 -0.00418794 0
1.00678 -0.00423281 0
1.00737 -0.00424802 0
1.00797 -0.00421997 0
1.00858 -0.00413503 0
1.0092 -0.00399833 0
1.00981 -0.00381501 0
1.0104 -0.00356617 0
1.01095 -0.00323295 0
1.01144 -0.00282904 0
1.01187 -0.00236812 0
1.01221 -0.00185879 0
1.01246 -0.00130961 0
1.01262 -0.000739016 0
1.01269 -0.000165393 0
1.01266 0.000415855 0
1.01255 0.00100933 0
1.01234 0.00158322 0
1.01203 0.00210568 0
1.01164 0.00257109 0
1.01118 0.00297379 0
1.01065 0.00331153 0
1.01009 0.00358205 0
1.0095 0.00378885 0
1.0089 0.00393542 0
1.00829 0.00402151 0
1.00769 0.00404685 0
1.00711 0.00402368 0
1.00656 0.00396423 0
1.00603 0.00387297 0
1.00553 0.00375437 0
1.00507 0.00361297 0
1.00463 0.00345333 0
1.00423 0.00328092 0
1.00385 0.00310121 0
1.0035 0.00291791 0
1.00318 0.00273472 0
1.00289 0.00255342 0
1.00263 0.00237581 0
1.00238 0.00220333 0
1.00216 0.00203744 0
1.00196 0.0018788 0
1.00178 0.00172808 0
1.00162 0.0015853 0
1.00147 0.00145048 0
1.00134 0.00132356 0
1.00122 0.00120447 0
1.00111 0.00109284 0
1.00102 0.000988293 0
1.00093 0.000890386 0
1.00086 0.000798674 0
1.00079 0.000712737 0
1.00073 0.000632151 0
1.00068 0.000556307 0
1.00063 0.000484595 0
1.00059 0.000416722 0
1.00056 0.000352399 0
1.00053 0.000290839 0
1.00051 0.000231252 0
1.00049 0.000173732 0
1.00048 0.000118368 0
1 0 0
1.00002 -0.000524596 0
1.0001 -0.0014882 0
1.00025 -0.00239098 0
1.00045 -0.00273309 0
1.00068 -0.00278015 0
1.0009 -0.00279781 0
1.00113 -0.00283712 0
1.00138 -0.00294916 0
1.00163 -0.0030919 0
1.00191 -0.00322329 0
1.00221 -0.00335637 0
1.00253 -0.00350419 0
1.00287 -0.00366696 0
1.00324 -0.00384491 0
1.00364 -0.00402345 0
1.00407 -0.00418799 0
1.00454 -0.00434761 0
1.00504 -0.00451137 0
1.00558 -0.00465575 0
1.00615 -0.00475723 0
1.00675 -0.00482592 0
1.00738 -0.0048719 0
1.00805 -0.00486987 0
1.00873 -0.00479449 0
1.00942 -0.00465042 0
1.01008 -0.00444226 0
1.01072 -0.00415385 0
1.01131 -0.003769 0
1.01185 -0.00330692 0
1.01235 -0.00278681 0
1.01276 -0.00220308 0
1.01309 -0.00155014 0
1.0133 -0.000862167 0
1.01337 -0.000173352 0
1.01332 0.000515697 0
1.01314 0.00120437 0
1.01287 0.00186495 0
1.01251 0.00246969 0
1.01208 0.00301236 0
1.01156 0.00348669 0
1.01098 0.00388186 0
1.01036 0.00418707 0
1.00971 0.00441245 0
1.00905 0.00456817 0
1.00839 0.00465408 0
1.00774 0.00467001 0
1.00711 0.00462734 0
1.0065 0.00453742 0
1.00593 0.00440967 0
1.0054 0.0042535 0
1.0049 0.00407552 0
1.00445 0.00388238 0
1.00403 0.00367784 0
1.00365 0.00346568 0
1.0033 0.00325071 0
1.00298 0.00303774 0
1.0027 0.00282884 0
1.00244 0.00262607 0
1.0022 0.0024304 0
1.00199 0.00224278 0
1.0018 0.00206408 0
1.00163 0.00189514 0
1.00147 0.0017358 0
1.00134 0.00158588 0
1.00121 0.0014452 0
1.0011 0.00131356 0
1.001 0.00119048 0
1.00091 0.0010755 0
1.00083 0.000968067 0
1.00076 0.000867657 0
1.0007 0.000773747 0
1.00065 0.000685817 0
1.0006 0.000603185 0
1.00056 0.000525168 0
1.00052 0.000451425 0
1.00049 0.000381614 0
1.00047 0.000314865 0
1.00045 0.000250304 0
1.00043 0.000188024 0
1.00042 0.000128118 0
1 0 0
1.00001 -0.000564779 0
1.00009 -0.00160079 0
1.00023 -0.00257137 0
1.00041 -0.00293984 0
1.00062 -0.0029928 0
1.00082 -0.00301683 0
1.00104 -0.00306482 0
1.00126 -0.00318967 0
1.0015 -0.00334965 0
1.00176 -0.00350302 0
1.00205 -0.00365935 0
1.00235 -0.0038282 0
1.00269 -0.00401586 0
1.00305 -0.0042286 0
1.00345 -0.00444408 0
1.00389 -0.00463997 0
1.00436 -0.00483291 0
1.00488 -0.00503952 0
1.00544 -0.00522665 0
1.00604 -0.00536111 0
1.00669 -0.005462 0
1.00738 -0.0055484 0
1.0081 -0.0055798 0
1.00885 -0.00551566 0
1.0096 -0.00536513 0
1.01034 -0.00513734 0
1.01105 -0.00481537 0
1.01172 -0.00438229 0
1.01235 -0.00386326 0
1.01292 -0.00328345 0
1.01343 -0.00261874 0
1.01383 -0.001845 0
1.01409 -0.00101493 0
1.01418 -0.00018122 0
1.0141 0.000644656 0
1.01388 0.00145123 0
1.01353 0.00221342 0
1.0131 0.00290613 0
1.01258 0.00352798 0
1.01199 0.00407758 0
1.01133 0.0045327 0
1.01062 0.00487109 0
1.00989 0.00510955 0
1.00916 0.0052649 0
1.00845 0.00534066 0
1.00774 0.00534035 0
1.00706 0.00527324 0
1.00641 0.00514861 0
1.00579 0.0049794 0
1.00522 0.00477854 0
1.0047 0.00455623 0
1.00423 0.00432265 0
1.00381 0.00408038 0
1.00342 0.00383198 0
1.00307 0.00358255 0
1.00276 0.00333719 0
1.00248 0.00309844 0
1.00222 0.00286887 0
1.002 0.00264889 0
1.0018 0.00243892 0
1.00162 0.00223987 0
1.00145 0.00205262 0
1.00131 0.00187677 0
1.00118 0.00171193 0
1.00107 0.00155779 0
1.00097 0.00141403 0
1.00088 0.00128003 0
1.0008 0.00115513 0
1.00073 0.00103871 0
1.00066 0.000930159 0
1.00061 0.000828842 0
1.00056 0.000734144 0