<?xml version="1.0"?>
<VTKFile type="UnstructuredGrid">
  <UnstructuredGrid>
  <Piece NumberOfPoints="961"  NumberOfCells="225">
    <Points>
      <DataArray type="Float64" NumberOfComponents="3" format="ascii">
0 0 0
0.0333333 0 0
0.0666667 0 0
0.1 0 0
0.133333 0 0
0.166667 0 0
0.2 0 0
0.233333 0 0
0.266667 0 0
0.3 0 0
0.333333 0 0
0.366667 0 0
0.4 0 0
0.433333 0 0
0.466667 0 0
0.5 0 0
0.533333 0 0
0.566667 0 0
0.6 0 0
0.633333 0 0
0.666667 0 0
0.7 0 0
0.733333 0 0
0.766667 0 0
0.8 0 0
0.833333 0 0
0.866667 0 0
0.9 0 0
0.933333 0 0
0.966667 0 0
1 0 0
0 0.0333333 0
0.0333333 0.0333333 0
0.0666667 0.0333333 0
0.1 0.0333333 0
0.133333 0.0333333 0
0.166667 0.0333333 0
0.2 0.0333333 0
0.233333 0.0333333 0
0.266667 0.0333333 0
0.3 0.0333333 0
0.333333 0.0333333 0
0.366667 0.0333333 0
0.4 0.0333333 0
0.433333 0.0333333 0
0.466667 0.0333333 0
0.5 0.0333333 0
0.533333 0.0333333 0
0.566667 0.0333333 0
0.6 0.0333333 0
0.633333 0.0333333 0
0.666667 0.0333333 0
0.7 0.0333333 0
0.733333 0.0333333 0
0.766667 0.0333333 0
0.8 0.0333333 0
0.833333 0.0333333 0
0.866667 0.0333333 0
0.9 0.0333333 0
0.933333 0.0333333 0
0.966667 0.0333333 0
1 0.0333333 0
0 0.0666667 0
0.0333333 0.0666667 0
0.0666667 0.0666667 0
0.1 0.0666667 0
0.133333 0.0666667 0
0.166667 0.0666667 0
0.2 0.0666667 0
0.233333 0.0666667 0
0.266667 0.0666667 0
0.3 0.0666667 0
0.333333 0.0666667 0
0.366667 0.0666667 0
0.4 0.0666667 0
0.433333 0.0666667 0
0.466667 0.0666667 0
0.5 0.0666667 0
0.533333 0.0666667 0
0.566667 0.0666667 0
0.6 0.0666667 0
0.633333 0.0666667 0
0.666667 0.0666667 0
0.7 0.0666667 0
0.733333 0.0666667 0
0.766667 0.0666667 0
0.8 0.0666667 0
0.833333 0.0666667 0
0.866667 0.0666667 0
0.9 0.0666667 0
0.933333 0.0666667 0
0.966667 0.0666667 0
1 0.0666667 0
0 0.1 0
0.0333333 0.1 0
0.0666667 0.1 0
0.1 0.1 0
0.133333 0.1 0
0.166667 0.1 0
0.2 0.1 0
0.233333 0.1 0
0.266667 0.1 0
0.3 0.1 0
0.333333 0.1 0
0.366667 0.1 0
0.4 0.1 0
0.433333 0.1 0
0.466667 0.1 0
0.5 0.1 0
0.533333 0.1 0
0.566667 0.1 0
0.6 0.1 0
0.633333 0.1 0
0.666667 0.1 0
0.7 0.1 0
0.733333 0.1 0
0.766667 0.1 0
0.8 0.1 0
0.833333 0.1 0
0.866667 0.1 0
0.9 0.1 0
0.933333 0.1 0
0.966667 0.1 0
1 0.1 0
0 0.133333 0
0.0333333 0.133333 0
0.0666667 0.133333 0
0.1 0.133333 0
0.133333 0.133333 0
0.166667 0.133333 0
0.2 0.133333 0
0.233333 0.133333 0
0.266667 0.133333 0
0.3 0.133333 0
0.333333 0.133333 0
0.366667 0.133333 0
0.4 0.133333 0
0.433333 0.133333 0
0.466667 0.133333 0
0.5 0.133333 0
0.533333 0.133333 0
0.566667 0.133333 0
0.6 0.133333 0
0.633333 0.133333 0
0.666667 0.133333 0
0.7 0.133333 0
0.733333 0.133333 0
0.766667 0.133333 0
0.8 0.133333 0
0.833333 0.133333 0
0.866667 0.133333 0
0.9 0.133333 0
0.933333 0.133333 0
0.966667 0.133333 0
1 0.133333 0
0 0.166667 0
0.0333333 0.166667 0
0.0666667 0.166667 0
0.1 0.166667 0
0.133333 0.166667 0
0.166667 0.166667 0
0.2 0.166667 0
0.233333 0.166667 0
0.266667 0.166667 0
0.3 0.166667 0
0.333333 0.166667 0
0.366667 0.166667 0
0.4 0.166667 0
0.433333 0.166667 0
0.466667 0.166667 0
0.5 0.166667 0
0.533333 0.166667 0
0.566667 0.166667 0
0.6 0.166667 0
0.633333 0.166667 0
0.666667 0.166667 0
0.7 0.166667 0
0.733333 0.166667 0
0.766667 0.166667 0
0.8 0.166667 0
0.833333 0.166667 0
0.866667 0.166667 0
0.9 0.166667 0
0.933333 0.166667 0
0.966667 0.166667 0
1 0.166667 0
0 0.2 0
0.0333333 0.2 0
0.0666667 0.2 0
0.1 0.2 0
0.133333 0.2 0
0.166667 0.2 0
0.2 0.2 0
0.233333 0.2 0
0.266667 0.2 0
0.3 0.2 0
0.333333 0.2 0
0.366667 0.2 0
0.4 0.2 0
0.433333 0.2 0
0.466667 0.2 0
0.5 0.2 0
0.533333 0.2 0
0.566667 0.2 0
0.6 0.2 0
0.633333 0.2 0
0.666667 0.2 0
0.7 0.2 0
0.733333 0.2 0
0.766667 0.2 0
0.8 0.2 0
0.833333 0.2 0
0.866667 0.2 0
0.9 0.2 0
0.933333 0.2 0
0.966667 0.2 0
1 0.2 0
0 0.233333 0
0.0333333 0.233333 0
0.0666667 0.233333 0
0.1 0.233333 0
0.133333 0.233333 0
0.166667 0.233333 0
0.2 0.233333 0
0.233333 0.233333 0
0.266667 0.233333 0
0.3 0.233333 0
0.333333 0.233333 0
0.366667 0.233333 0
0.4 0.233333 0
0.433333 0.233333 0
0.466667 0.233333 0
0.5 0.233333 0
0.533333 0.233333 0
0.566667 0.233333 0
0.6 0.233333 0
0.633333 0.233333 0
0.666667 0.233333 0
0.7 0.233333 0
0.733333 0.233333 0
0.766667 0.233333 0
0.8 0.233333 0
0.833333 0.233333 0
0.866667 0.233333 0
0.9 0.233333 0
0.933333 0.233333 0
0.966667 0.233333 0
1 0.233333 0
0 0.266667 0
0.0333333 0.266667 0
0.0666667 0.266667 0
0.1 0.266667 0
0.133333 0.266667 0
0.166667 0.266667 0
0.2 0.266667 0
0.233333 0.266667 0
0.266667 0.266667 0
0.3 0.266667 0
0.333333 0.266667 0
0.366667 0.266667 0
0.4 0.266667 0
0.433333 0.266667 0
0.466667 0.266667 0
0.5 0.266667 0
0.533333 0.266667 0
0.566667 0.266667 0
0.6 0.266667 0
0.633333 0.266667 0
0.666667 0.266667 0
0.7 0.266667 0
0.733333 0.266667 0
0.766667 0.266667 0
0.8 0.266667 0
0.833333 0.266667 0
0.866667 0.266667 0
0.9 0.266667 0
0.933333 0.266667 0
0.966667 0.266667 0
1 0.266667 0
0 0.3 0
0.0333333 0.3 0
0.0666667 0.3 0
0.1 0.3 0
0.133333 0.3 0
0.166667 0.3 0
0.2 0.3 0
0.233333 0.3 0
0.266667 0.3 0
0.3 0.3 0
0.333333 0.3 0
0.366667 0.3 0
0.4 0.3 0
0.433333 0.3 0
0.466667 0.3 0
0.5 0.3 0
0.533333 0.3 0
0.566667 0.3 0
0.6 0.3 0
0.633333 0.3 0
0.666667 0.3 0
0.7 0.3 0
0.733333 0.3 0
0.766667 0.3 0
0.8 0.3 0
0.833333 0.3 0
0.866667 0.3 0
0.9 0.3 0
0.933333 0.3 0
0.966667 0.3 0
1 0.3 0
0 0.333333 0
0.0333333 0.333333 0
0.0666667 0.333333 0
0.1 0.333333 0
0.133333 0.333333 0
0.166667 0.333333 0
0.2 0.333333 0
0.233333 0.333333 0
0.266667 0.333333 0
0.3 0.333333 0
0.333333 0.333333 0
0.366667 0.333333 0
0.4 0.333333 0
0.433333 0.333333 0
0.466667 0.333333 0
0.5 0.333333 0
0.533333 0.333333 0
0.566667 0.333333 0
0.6 0.333333 0
0.633333 0.333333 0
0.666667 0.333333 0
0.7 0.333333 0
0.733333 0.333333 0
0.766667 0.333333 0
0.8 0.333333 0
0.833333 0.333333 0
0.866667 0.333333 0
0.9 0.333333 0
0.933333 0.333333 0
0.966667 0.333333 0
1 0.333333 0
0 0.366667 0
0.0333333 0.366667 0
0.0666667 0.366667 0
0.1 0.366667 0
0.133333 0.366667 0
0.166667 0.366667 0
0.2 0.366667 0
0.233333 0.366667 0
0.266667 0.366667 0
0.3 0.366667 0
0.333333 0.366667 0
0.366667 0.366667 0
0.4 0.366667 0
0.433333 0.366667 0
0.466667 0.366667 0
0.5 0.366667 0
0.533333 0.366667 0
0.566667 0.366667 0
0.6 0.366667 0
0.633333 0.366667 0
0.666667 0.366667 0
0.7 0.366667 0
0.733333 0.366667 0
0.766667 0.366667 0
0.8 0.366667 0
0.833333 0.366667 0
0.866667 0.366667 0
0.9 0.366667 0
0.933333 0.366667 0
0.966667 0.366667 0
1 0.366667 0
0 0.4 0
0.0333333 0.4 0
0.0666667 0.4 0
0.1 0.4 0
0.133333 0.4 0
0.166667 0.4 0
0.2 0.4 0
0.233333 0.4 0
0.266667 0.4 0
0.3 0.4 0
0.333333 0.4 0
0.366667 0.4 0
0.4 0.4 0
0.433333 0.4 0
0.466667 0.4 0
0.5 0.4 0
0.533333 0.4 0
0.566667 0.4 0
0.6 0.4 0
0.633333 0.4 0
0.666667 0.4 0
0.7 0.4 0
0.733333 0.4 0
0.766667 0.4 0
0.8 0.4 0
0.833333 0.4 0
0.866667 0.4 0
0.9 0.4 0
0.933333 0.4 0
0.966667 0.4 0
1 0.4 0
0 0.433333 0
0.0333333 0.433333 0
0.0666667 0.433333 0
0.1 0.433333 0
0.133333 0.433333 0
0.166667 0.433333 0
0.2 0.433333 0
0.233333 0.433333 0
0.266667 0.433333 0
0.3 0.433333 0
0.333333 0.433333 0
0.366667 0.433333 0
0.4 0.433333 0
0.433333 0.433333 0
0.466667 0.433333 0
0.5 0.433333 0
0.533333 0.433333 0
0.566667 0.433333 0
0.6 0.433333 0
0.633333 0.433333 0
0.666667 0.433333 0
0.7 0.433333 0
0.733333 0.433333 0
0.766667 0.433333 0
0.8 0.433333 0
0.833333 0.433333 0
0.866667 0.433333 0
0.9 0.433333 0
0.933333 0.433333 0
0.966667 0.433333 0
1 0.433333 0
0 0.466667 0
0.0333333 0.466667 0
0.0666667 0.466667 0
0.1 0.466667 0
0.133333 0.466667 0
0.166667 0.466667 0
0.2 0.466667 0
0.233333 0.466667 0
0.266667 0.466667 0
0.3 0.466667 0
0.333333 0.466667 0
0.366667 0.466667 0
0.4 0.466667 0
0.433333 0.466667 0
0.466667 0.466667 0
0.5 0.466667 0
0.533333 0.466667 0
0.566667 0.466667 0
0.6 0.466667 0
0.633333 0.466667 0
0.666667 0.466667 0
0.7 0.466667 0
0.733333 0.466667 0
0.766667 0.466667 0
0.8 0.466667 0
0.833333 0.466667 0
0.866667 0.466667 0
0.9 0.466667 0
0.933333 0.466667 0
0.966667 0.466667 0
1 0.466667 0
0 0.5 0
0.0333333 0.5 0
0.0666667 0.5 0
0.1 0.5 0
0.133333 0.5 0
0.166667 0.5 0
0.2 0.5 0
0.233333 0.5 0
0.266667 0.5 0
0.3 0.5 0
0.333333 0.5 0
0.366667 0.5 0
0.4 0.5 0
0.433333 0.5 0
0.466667 0.5 0
0.5 0.5 0
0.533333 0.5 0
0.566667 0.5 0
0.6 0.5 0
0.633333 0.5 0
0.666667 0.5 0
0.7 0.5 0
0.733333 0.5 0
0.766667 0.5 0
0.8 0.5 0
0.833333 0.5 0
0.866667 0.5 0
0.9 0.5 0
0.933333 0.5 0
0.966667 0.5 0
1 0.5 0
0 0.533333 0
0.0333333 0.533333 0
0.0666667 0.533333 0
0.1 0.533333 0
0.133333 0.533333 0
0.166667 0.533333 0
0.2 0.533333 0
0.233333 0.533333 0
0.266667 0.533333 0
0.3 0.533333 0
0.333333 0.533333 0
0.366667 0.533333 0
0.4 0.533333 0
0.433333 0.533333 0
0.466667 0.533333 0
0.5 0.533333 0
0.533333 0.533333 0
0.566667 0.533333 0
0.6 0.533333 0
0.633333 0.533333 0
0.666667 0.533333 0
0.7 0.533333 0
0.733333 0.533333 0
0.766667 0.533333 0
0.8 0.533333 0
0.833333 0.533333 0
0.866667 0.533333 0
0.9 0.533333 0
0.933333 0.533333 0
0.966667 0.533333 0
1 0.533333 0
0 0.566667 0
0.0333333 0.566667 0
0.0666667 0.566667 0
0.1 0.566667 0
0.133333 0.566667 0
0.166667 0.566667 0
0.2 0.566667 0
0.233333 0.566667 0
0.266667 0.566667 0
0.3 0.566667 0
0.333333 0.566667 0
0.366667 0.566667 0
0.4 0.566667 0
0.433333 0.566667 0
0.466667 0.566667 0
0.5 0.566667 0
0.533333 0.566667 0
0.566667 0.566667 0
0.6 0.566667 0
0.633333 0.566667 0
0.666667 0.566667 0
0.7 0.566667 0
0.733333 0.566667 0
0.766667 0.566667 0
0.8 0.566667 0
0.833333 0.566667 0
0.866667 0.566667 0
0.9 0.566667 0
0.933333 0.566667 0
0.966667 0.566667 0
1 0.566667 0
0 0.6 0
0.0333333 0.6 0
0.0666667 0.6 0
0.1 0.6 0
0.133333 0.6 0
0.166667 0.6 0
0.2 0.6 0
0.233333 0.6 0
0.266667 0.6 0
0.3 0.6 0
0.333333 0.6 0
0.366667 0.6 0
0.4 0.6 0
0.433333 0.6 0
0.466667 0.6 0
0.5 0.6 0
0.533333 0.6 0
0.566667 0.6 0
0.6 0.6 0
0.633333 0.6 0
0.666667 0.6 0
0.7 0.6 0
0.733333 0.6 0
0.766667 0.6 0
0.8 0.6 0
0.833333 0.6 0
0.866667 0.6 0
0.9 0.6 0
0.933333 0.6 0
0.966667 0.6 0
1 0.6 0
0 0.633333 0
0.0333333 0.633333 0
0.0666667 0.633333 0
0.1 0.633333 0
0.133333 0.633333 0
0.166667 0.633333 0
0.2 0.633333 0
0.233333 0.633333 0
0.266667 0.633333 0
[...]
    <PointData>
      <DataArray type="Float64" NumberOfComponents="3" Name="Velocity" format="ascii">
0 0 0
0 0 0
0 0 0
0 0 0
0 0 0
0 0 0
0 0 0
0 0 0
0 0 0
0 0 0
0 0 0
0 0 0
0 0 0
0 0 0
0 0 0
0 0 0
0 0 0
0 0 0
0 0 0
0 0 0
0 0 0
0 0 0
0 0 0
0 0 0
0 0 0
0 0 0
0 0 0
0 0 0
0 0 0
0 0 0
0 0 0
0 0 0
-0.000494026 0.000447161 0
-0.00150485 0.00100397 0
-0.00317957 0.00155086 0
-0.00566527 0.00196827 0
-0.00861622 0.00221543 0
-0.0116867 0.00225157 0
-0.0147507 0.00215388 0
-0.0176825 0.00199957 0
-0.0203727 0.00178857 0
-0.0227123 0.00152083 0
-0.0246623 0.0012178 0
-0.0261839 0.000900954 0
-0.0272503 0.00057104 0
-0.027835 0.000228815 0
-0.0279305 -0.00011889 0
-0.0275292 -0.000465245 0
-0.0266475 -0.000798715 0
-0.0253016 -0.00110776 0
-0.0235337 -0.00139264 0
-0.021386 -0.00165358 0
-0.0189121 -0.00186444 0
-0.0161657 -0.00199904 0
-0.0132692 -0.00207078 0
-0.0103454 -0.00209307 0
-0.00749084 -0.00199958 0
-0.00480237 -0.00172402 0
-0.00258554 -0.00130921 0
-0.00114596 -0.000798025 0
-0.000333988 -0.000318827 0
0 0 0
0 0 0
-0.000754741 0.00116168 0
-0.00318179 0.00286851 0
-0.00696817 0.00456226 0
-0.0118009 0.00568471 0
-0.0172559 0.00630022 0
-0.022909 0.00647312 0
-0.0285037 0.00630144 0
-0.0337834 0.00588317 0
-0.0386016 0.00527126 0
-0.0428116 0.00451861 0
-0.0463351 0.00366151 0
-0.0490937 0.00273622 0
-0.0510327 0.00175539 0
-0.0520969 0.000731661 0
-0.0522714 -0.000310217 0
-0.0515412 -0.00134548 0
-0.049932 -0.00234559 0
-0.0474701 -0.003282 0
-0.0442377 -0.00413412 0
-0.0403176 -0.00488132 0
-0.0358244 -0.00549089 0
-0.0308729 -0.00593008 0
-0.0256274 -0.00615865 0
-0.020252 -0.00613634 0
-0.0150006 -0.00580773 0
-0.0101269 -0.00511743 0
-0.00592909 -0.00400986 0
-0.00270536 -0.00242948 0
-0.000660662 -0.000913711 0
0 0 0
0 0 0
-0.00134634 0.00306561 0
-0.00527725 0.00660254 0
-0.0110488 0.00979808 0
-0.017917 0.0118395 0
-0.0254516 0.0129047 0
-0.0332221 0.0131712 0
-0.0408789 0.0127926 0
-0.0480721 0.0119219 0
-0.0546357 0.0106749 0
-0.0604037 0.00916696 0
-0.0652526 0.0074497 0
-0.0690592 0.00557467 0
-0.0717436 0.0035774 0
-0.0732262 0.0014934 0
-0.0734836 -0.000627744 0
-0.0724925 -0.00273646 0
-0.0702892 -0.00477589 0
-0.0669103 -0.00668919 0
-0.0624699 -0.00842165 0
-0.0570824 -0.00991858 0
-0.050924 -0.0111373 0
-0.0441713 -0.0120351 0
-0.037009 -0.0125199 0
-0.0296222 -0.0124997 0
-0.0223659 -0.0118984 0
-0.015595 -0.0106401 0
-0.00958604 -0.00859907 0
-0.00461539 -0.00564934 0
-0.0012358 -0.00253498 0
0 0 0
0 0 0
-0.00283302 0.00708099 0
-0.00803767 0.013215 0
-0.0151044 0.0180222 0
-0.0235238 0.0211229 0
-0.0327361 0.022679 0
-0.0421814 0.0228525 0
-0.0514964 0.0219772 0
-0.0603176 0.020387 0
-0.068424 0.0182263 0
-0.0755945 0.0156395 0
-0.0816496 0.012701 0
-0.0864098 0.00948516 0
-0.0897795 0.00606138 0
-0.0916633 0.0024989 0
-0.0920278 -0.00112523 0
-0.0908398 -0.00473393 0
-0.0881545 -0.00822489 0
-0.0840271 -0.0114958 0
-0.0785881 -0.0144524 0
-0.0719683 -0.0170007 0
-0.0643986 -0.0190616 0
-0.0561104 -0.0205561 0
-0.0473486 -0.021411 0
-0.0383583 -0.021553 0
-0.0294235 -0.0207455 0
-0.0208283 -0.0187521 0
-0.0131118 -0.015574 0
-0.00681325 -0.0112126 0
-0.00231518 -0.00593295 0
0 0 0
0 0 0
-0.00397668 0.011606 0
-0.0105083 0.0205847 0
-0.0190294 0.0270771 0
-0.0289749 0.0312242 0
-0.0397053 0.0332462 0
-0.0505815 0.0333635 0
-0.0612797 0.0320474 0
-0.0714762 0.0297692 0
-0.0808915 0.0266852 0
-0.0892463 0.0229514 0
-0.0963285 0.018682 0
-0.101926 0.0139915 0
-0.10592 0.00898094 0
-0.108191 0.00375175 0
-0.108687 -0.00157832 0
-0.107357 -0.00689149 0
-0.104266 -0.0120312 0
-0.0994799 -0.0168408 0
-0.0931558 -0.0211818 0
-0.0854494 -0.0249157 0
-0.076633 -0.0279125 0
-0.0669791 -0.0300423 0
-0.056809 -0.0312689 0
-0.0464441 -0.0315563 0
-0.0360921 -0.0305545 0
-0.0259606 -0.0279139 0
-0.0167045 -0.0236163 0
-0.00897864 -0.0176432 0
-0.00325357 -0.009827 0
0 0 0
0 0 0
-0.00353923 0.0150388 0
-0.0117343 0.0265906 0
-0.0227182 0.0348054 0
-0.0346237 0.0398328 0
-0.0469552 0.0422292 0
-0.059217 0.0425509 0
-0.0711522 0.0411953 0
-0.0825041 0.0385596 0
-0.0929635 0.0348112 0
-0.102222 0.0301177 0
-0.110092 0.0246596 0
-0.116388 0.0186173 0
-0.120944 0.0121097 0
-0.123592 0.00525558 0
-0.124246 -0.00176266 0
-0.122817 -0.00876271 0
-0.11936 -0.0155334 0
-0.113928 -0.0218633 0
-0.106737 -0.0275652 0
-0.0980001 -0.0324514 0
-0.0880122 -0.0363384 0
-0.0770664 -0.0390426 0
-0.0655533 -0.0405307 0
-0.0538635 -0.0407695 0
-0.0422901 -0.0395309 0
-0.031126 -0.0365866 0
-0.0205626 -0.0314076 0
-0.0107912 -0.0234649 0
-0.00340574 -0.0129365 0
0 0 0
0 0 0
-0.00319301 0.0211284 0
-0.012501 0.0362836 0
-0.0251781 0.046358 0
-0.0384787 0.0522441 0
-0.0521221 0.0548711 0
-0.065828 0.0551685 0
-0.0792269 0.0534653 0
-0.0919493 0.0500904 0
-0.103677 0.0452776 0
-0.11409 0.0392608 0
-0.122993 0.0322519 0
-0.13019 0.0244628 0
-0.135468 0.0160322 0
-0.138615 0.0070988 0
-0.139515 -0.00209082 0
-0.138053 -0.0112902 0
-0.13427 -0.0202025 0
-0.128209 -0.0285309 0
-0.120118 -0.0360233 0
-0.11025 -0.0424275 0
-0.0989348 -0.047513 0
-0.0865016 -0.0510494 0
-0.0734031 -0.0529457 0
-0.0600913 -0.0531107 0
-0.0470902 -0.051502 0
-0.0349234 -0.0480771 0
-0.0233264 -0.0419951 0
-0.0120344 -0.0324148 0
-0.00345607 -0.0186465 0
0 0 0
0 0 0
-0.00461039 0.0336241 0
-0.0135935 0.0547145 0
-0.0254169 0.066886 0
-0.0385482 0.0737535 0
-0.0528424 0.0764155 0
-0.0681546 0.0759702 0
-0.0836165 0.0729017 0
-0.09836 0.0676942 0
-0.112067 0.0607578 0
-0.12442 0.0525028 0
-0.135084 0.043077 0
-0.143722 0.0326279 0
-0.150105 0.0213331 0
-0.154005 0.00936986 0
-0.155307 -0.00297539 0
-0.153897 -0.0154164 0
-0.14983 -0.0275096 0
-0.143158 -0.0388111 0
-0.134089 -0.048977 0
-0.12283 -0.0576634 0
-0.1098 -0.0646097 0
-0.0954143 -0.0695549 0
-0.0801801 -0.072263 0
-0.0646025 -0.0724975 0
-0.0495652 -0.0702952 0
-0.035952 -0.0656928 0
-0.0236362 -0.0584259 0
-0.0124914 -0.0482298 0
-0.00408894 -0.0303421 0
0 0 0
0 0 0
-0.00532881 0.0431823 0
-0.0132625 0.069176 0
-0.0237261 0.0835753 0
-0.0366444 0.0919748 0
-0.0515978 0.0953585 0
-0.0681665 0.0947102 0
-0.0851923 0.0907512 0
-0.101517 0.0842027 0
-0.1168 0.0755882 0
-0.130702 0.0654314 0
-0.142774 0.0538418 0
-0.152565 0.0409289 0
-0.159849 0.0269344 0
-0.164398 0.0120999 0
-0.166104 -0.00324316 0
-0.16486 -0.0187631 0
-0.160716 -0.0338974 0
-0.153725 -0.0480834 0
-0.144041 -0.0608706 0
-0.131818 -0.0718084 0
-0.117527 -0.0805802 0
-0.101638 -0.0868692 0
-0.0847051 -0.0903027 0
-0.0672857 -0.0905082 0
-0.0504866 -0.0874844 0
-0.0354153 -0.0812301 0
-0.0224512 -0.0722417 0
-0.0119738 -0.0610156 0
-0.00436343 -0.0395893 0
0 0 0
0 0 0
-0.0028857 0.0404595 0
-0.00975864 0.0669607 0
-0.020397 0.083612 0
-0.0345791 0.0945216 0
-0.0508697 0.100196 0
-0.0678336 0.101143 0
-0.0848256 0.0982605 0
-0.1012 0.0924477 0
-0.116539 0.0841054 0
-0.130424 0.0736341 0
-0.142471 0.0612532 0
-0.152302 0.047182 0
-0.159695 0.0317583 0
-0.164431 0.0153199 0
-0.166389 -0.00172092 0
-0.165451 -0.0189519 0
-0.161609 -0.0358089 0
-0.15486 -0.0517276 0
-0.145367 -0.0661484 0
-0.133293 -0.0785117 0
-0.11904 -0.0883765 0
-0.103005 -0.0953021 0
-0.0857991 -0.0988848 0
-0.0680297 -0.098721 0
-0.0506261 -0.0946434 0
-0.0345171 -0.0864851 0
-0.0207303 -0.0749839 0
-0.0102931 -0.0608778 0
-0.00333864 -0.037954 0
0 0 0
0 0 0
-0.00107289 0.0340439 0
-0.00762092 0.0597411 0
-0.0188731 0.078624 0
-0.0340585 0.0922247 0
-0.0510501 0.100581 0
-0.0677213 0.10373 0
-0.0839746 0.102608 0
-0.0997129 0.098151 0
-0.114437 0.0906223 0
-0.127649 0.0802869 0
-0.139079 0.0675325 0
-0.148459 0.0527468 0
-0.155583 0.0363585 0
-0.16025 0.018796 0
-0.162331 0.000552991 0
-0.161703 -0.0178771 0
-0.158318 -0.0359674 0
-0.152133 -0.0531913 0
-0.143305 -0.0689134 0
-0.131995 -0.082498 0
-0.11849 -0.093346 0
-0.103078 -0.100858 0
-0.0863802 -0.104604 0
-0.0690197 -0.104156 0
-0.0516666 -0.0991593 0
-0.0349914 -0.0892586 0
-0.0204878 -0.0750725 0
-0.0096495 -0.0572193 0
-0.0027343 -0.0330711 0
0 0 0
0 0 0
-0.0036822 0.0325238 0
-0.0113884 0.0591894 0
-0.0225975 0.0802391 0
-0.0367884 0.0959152 0
-0.0525309 0.106164 0
-0.0683949 0.110934 0
-0.0840977 0.110974 0
-0.0993561 0.107034 0
-0.113646 0.0994521 0
-0.126443 0.0885658 0
-0.137499 0.0749009 0
-0.146563 0.0589831 0
-0.153458 0.0412888 0
-0.158002 0.0222943 0
-0.160098 0.00254021 0
-0.159649 -0.0174328 0
-0.156654 -0.0370964 0
-0.151113 -0.0559223 0
-0.143093 -0.0732683 0
-0.132661 -0.0884923 0
-0.120031 -0.100836 0
-0.105415 -0.10954 0
-0.0893665 -0.114057 0
-0.0724405 -0.113835 0
-0.0552909 -0.108419 0
-0.0385719 -0.0973511 0
-0.0237379 -0.0809272 0
-0.0122434 -0.059443 0
-0.00427015 -0.032575 0
0 0 0
0 0 0
-0.00685521 0.0352753 0
-0.0160416 0.0648201 0
-0.0273451 0.0884564 0
-0.0405517 0.106007 0
-0.0551418 0.117571 0
-0.0705961 0.12325 0
-0.086241 0.123644 0
-0.101403 0.119355 0
-0.115567 0.110898 0
-0.12822 0.0987876 0
-0.13912 0.083651 0
-0.148028 0.0661146 0
-0.154798 0.0466819 0
-0.159281 0.0258559 0
-0.161415 0.00418738 0
-0.161139 -0.0177729 0
-0.158498 -0.0394722 0
-0.15354 -0.0603576 0
-0.146224 -0.0797826 0
-0.13651 -0.0971005 0
-0.124536 -0.111423 0
-0.110441 -0.121863 0
-0.0946952 -0.127693 0
-0.0777663 -0.128184 0
-0.060401 -0.122754 0
-0.0433458 -0.110818 0
-0.0279046 -0.0923273 0
-0.0153819 -0.0672355 0
-0.00600464 -0.0362303 0
0 0 0
0 0 0
-0.00673347 0.0416748 0
-0.016561 0.0761475 0
-0.0288908 0.103275 0
-0.0431313 0.122913 0
-0.0587129 0.135425 0
-0.0750663 0.141173 0
-0.091451 0.140907 0
-0.107127 0.135373 0
-0.121603 0.125263 0
-0.134391 0.111269 0
-0.145332 0.0940751 0
-0.154265 0.0743652 0
-0.161083 0.0526705 0
-0.165679 0.0295221 0
-0.168007 0.00544116 0
-0.168021 -0.0190511 0
-0.165731 -0.0433708 0
-0.161151 -0.0669343 0
-0.154189 -0.0890256 0
-0.144755 -0.108929 0
-0.132877 -0.125686 0
-0.118583 -0.13834 0
-0.102304 -0.145963 0
-0.0844713 -0.147631 0
-0.0658989 -0.142496 0
-0.0474001 -0.129713 0
-0.0304122 -0.109052 0
-0.0163723 -0.0802836 0
-0.00599623 -0.0438016 0
0 0 0
0 0 0
-0.00552033 0.049338 0
-0.0156973 0.0894967 0
-0.0293412 0.120461 0
-0.0452627 0.142214 0
-0.0624803 0.155452 0
-0.0800126 0.160867 0
-0.097176 0.15948 0
-0.113287 0.15231 0
-0.127931 0.140233 0
-0.140691 0.124126 0
-0.151505 0.104711 0
-0.160313 0.0827113 0
-0.167065 0.0586793 0
-0.171715 0.0331674 0
-0.174229 0.00665209 0
-0.174576 -0.0203904 0
-0.172702 -0.0473678 0
-0.168556 -0.0736878 0
-0.162006 -0.0985641 0
-0.152917 -0.12121 0
-0.141205 -0.140619 0
-0.126783 -0.155784 0
-0.110015 -0.165541 0
-0.0912681 -0.168731 0
-0.0713996 -0.164177 0
-0.0512688 -0.150706 0
-0.0325315 -0.127874 0
-0.0168439 -0.0952375 0
-0.00555157 -0.0526583 0
0 0 0
0 0 0
-0.00541912 0.0558811 0
-0.0162013 0.101193 0
-0.0308032 0.135781 0
-0.0476818 0.159492 0
-0.0656803 0.173379 0
-0.083642 0.178492 0
-0.100865 0.17608 0
-0.116646 0.167389 0
-0.130727 0.153494 0
-0.14285 0.135474 0
-0.153012 0.114097 0
-0.161212 0.0901296 0
-0.167494 0.0641329 0
-0.171905 0.0366665 0
-0.174437 0.00817073 0
-0.175084 -0.020914 0
-0.173756 -0.0500384 0
-0.170364 -0.0786534 0
-0.16469 -0.105965 0
-0.156515 -0.131179 0
-0.145669 -0.153219 0
-0.131984 -0.17101 0
-0.115653 -0.1831 0
-0.0968694 -0.188039 0
-0.0765184 -0.184328 0
-0.0554854 -0.170466 0
-0.0355337 -0.145568 0
-0.0184265 -0.108748 0
-0.00597732 -0.06017 0
0 0 0
0 0 0
-0.00585196 0.0626468 0
-0.0173724 0.113021 0
-0.0327577 0.150978 0
-0.0502041 0.176374 0
-0.0684309 0.190621 0
-0.086157 0.195133 0
-0.102719 0.19145 0
-0.117451 0.181111 0
-0.130269 0.165371 0
-0.141086 0.145485 0
-0.14999 0.122281 0
-0.15707 0.0965876 0
-0.162473 0.0689447 0
-0.166346 0.0398925 0
-0.16872 0.00982546 0
-0.169627 -0.0208619 0
-0.168955 -0.0517 0
-0.166591 -0.0822191 0
-0.162226 -0.111675 0
-0.155552 -0.139323 0
-0.146285 -0.164007 0
-0.134143 -0.18457 0
-0.119107 -0.199292 0
-0.10116 -0.206451 0
-0.0811007 -0.204113 0
-0.0597293 -0.190341 0
-0.0389137 -0.163706 0
-0.0205218 -0.122778 0
-0.00680125 -0.068046 0
0 0 0
0 0 0
-0.00624098 0.0709779 0
-0.01851 0.126767 0
-0.0346853 0.167795 0
-0.0526454 0.194487 0
-0.0708502 0.208595 0
-0.0877602 0.211873 0
-0.102939 0.206331 0
-0.115952 0.193977 0
-0.126832 0.176186 0
-0.135615 0.154328 0
-0.142578 0.129313 0
-0.147997 0.102053 0
-0.152104 0.0730276 0
-0.155133 0.0427184 0
-0.157165 0.0114447 0
-0.158286 -0.0204742 0
-0.15836 -0.0526696 0
-0.157254 -0.0847728 0
-0.154601 -0.116141 0
-0.150034 -0.146131 0
-0.143067 -0.173503 0
-0.133214 -0.197017 0
-0.120268 -0.21477 0
-0.104025 -0.22486 0
-0.0849924 -0.224693 0
-0.0636798 -0.211678 0
-0.0421665 -0.183862 0
-0.0225318 -0.139292 0
-0.00755115 -0.0779954 0
0 0 0
0 0 0
-0.0066611 0.0802736 0
-0.0198142 0.141698 0
-0.0367571 0.18546 0
-0.0547877 0.212749 0
-0.0722726 0.225914 0
-0.0875786 0.227306 0
-0.10051 0.219406 0
-0.110871 0.204696 0
-0.118897 0.184696 0
-0.124823 0.160925 0
-0.129128 0.134326 0
-0.132292 0.105842 0
-0.134636 0.0758742 0
-0.136479 0.0448244 0
-0.137959 0.0129075 0
-0.139212 -0.0196613 0
-0.140097 -0.05264 0
-0.140475 -0.0857862 0
-0.139936 -0.118591 0
-0.138071 -0.150544 0
-0.134186 -0.180405 0
-0.127588 -0.206935 0
-0.117787 -0.228042 0
-0.104294 -0.241637 0
-0.087279 -0.244451 0
-0.0669137 -0.233216 0
-0.0453089 -0.20515 0
-0.0245758 -0.157469 0
-0.00828329 -0.0893574 0
0 0 0
0 0 0
-0.00718724 0.0899331 0
-0.0214853 0.157077 0
-0.039144 0.203203 0
-0.0564133 0.230078 0
-0.0720322 0.24119 0
-0.0847395 0.240025 0
-0.0944141 0.22936 0
-0.100935 0.211974 0
-0.104947 0.189657 0
-0.107095 0.164196 0
-0.107994 0.136449 0
-0.108257 0.107269 0
-0.108316 0.0769766 0
-0.108599 0.0458906 0
-0.109286 0.0140931 0
-0.110555 -0.0183338 0
-0.112291 -0.0513039 0
-0.114378 -0.0847309 0
-0.116358 -0.118252 0
-0.117773 -0.151503 0
-0.11781 -0.183412 0
-0.115654 -0.212906 0
-0.110314 -0.237611 0
-0.100796 -0.255154 0
-0.0870458 -0.26177 0
-0.0690076 -0.253695 0
-0.0483579 -0.226683 0
-0.0267733 -0.176487 0
-0.00905394 -0.101471 0
0 0 0
0 0 0
-0.00807157 0.100609 0
-0.0231909 0.173019 0
-0.040836 0.220326 0
-0.0564852 0.245623 0
-0.0691494 0.253593 0
-0.0778399 0.248917 0
-0.0827643 0.234843 0
-0.0841305 0.214618 0
-0.0830087 0.190165 0
-0.0804691 0.163403 0
-0.0772358 0.135054 0
-0.0740331 0.105839 0
-0.0713767 0.0759666 0
-0.0697824 0.0456416 0
-0.0694599 0.0148041 0
-0.0706187 -0.0166063 0
-0.0731861 -0.0486691 0
-0.0770895 -0.0814635 0
-0.0818571 -0.114807 0
-0.0870171 -0.148519 0
-0.0916941 -0.18177 0
-0.0950127 -0.213734 0
-0.0954927 -0.24196 0
-0.0916536 -0.263996 0
-0.0829047 -0.275432 0
-0.0686552 -0.271858 0
-0.0501782 -0.247397 0
-0.0287471 -0.196176 0
-0.0101063 -0.11483 0
0 0 0
0 0 0
-0.00956628 0.112955 0
-0.0245986 0.189637 0
-0.0408232 0.236133 0
-0.0539662 0.258533 0
-0.0626449 0.262293 0
-0.0654768 0.252869 0
-0.0636731 0.234502 0
-0.058445 0.211434 0
-0.0511095 0.185317 0
-0.0429833 0.157803 0
-0.0349169 0.129511 0
-0.027761 0.101057 0
-0.0220503 0.0724759 0
-0.0183197 0.0438023 0
-0.0167962 0.0148433 0
-0.017707 -0.0145936 0
-0.0210291 -0.0447433 0
-0.0267394 -0.0758407 0
-0.0344266 -0.107942 0
-0.0436794 -0.141102 0
-0.0535925 -0.174727 0
-0.0632608 -0.208223 0
-0.0709653 -0.23957 0
-0.0749867 -0.26675 0
-0.0734675 -0.284222 0
-0.0645501 -0.286447 0
-0.0496344 -0.266227 0
-0.0301202 -0.216362 0
-0.0116835 -0.129928 0
0 0 0
0 0 0
-0.0105062 0.125653 0
-0.0253069 0.205506 0
-0.0393429 0.249217 0
-0.0475549 0.266446 0
-0.0492642 0.264141 0
-0.0437923 0.249253 0
-0.0333652 0.226661 0
-0.020209 0.201246 0
-0.00577242 0.17423 0
0.00849564 0.146839 0
0.0217052 0.119533 0
0.0329662 0.092773 0
0.0417966 0.0664103 0
0.0477141 0.0402968 0
0.0505001 0.0141281 0
0.0499359 -0.0124002 0
0.0459923 -0.0396503 0
0.0386401 -0.0679843 0
0.0281642 -0.0976933 0
0.0148495 -0.129069 0
-0.000478752 -0.161792 0
-0.0169954 -0.195543 0
-0.0329552 -0.228962 0
-0.0466125 -0.260687 0
-0.0549131 -0.28458 0
-0.0548029 -0.294507 0
-0.0465093 -0.281162 0
-0.03026 -0.235242 0
-0.0125814 -0.145328 0
0 0 0
0 0 0
-0.00972614 0.137385 0
-0.0249142 0.219203 0
-0.0366327 0.258167 0
-0.0359499 0.266995 0
-0.0257529 0.255986 0
-0.0089285 0.235441 0
0.0119345 0.209644 0
0.0342474 0.18288 0
0.0564797 0.156023 0
0.0771011 0.129952 0
0.0953727 0.104835 0
0.110556 0.0808399 0
0.122297 0.0576757 0
0.130244 0.0350497 0
0.134224 0.0125761 0
0.134066 -0.0101306 0
0.12969 -0.0335136 0
0.121016 -0.0580159 0
0.108146 -0.0841021 0
0.0911792 -0.112237 0
0.0706737 -0.142474 0
0.0471868 -0.174867 0
0.0223143 -0.208655 0
-0.00234789 -0.243078 0
-0.0234204 -0.272947 0
-0.0375238 -0.293077 0
-0.0405857 -0.29019 0
-0.0285337 -0.251011 0
-0.0115958 -0.159595 0
0 0 0
0 0 0
-0.00902467 0.150817 0
-0.0198201 0.229433 0
-0.0226795 0.257037 0
-0.00789649 0.254822 0
0.0178341 0.235079 0
0.0478172 0.210098 0
0.0796585 0.182887 0
0.110964 0.156452 0
0.14036 0.131302 0
0.166473 0.107945 0
0.18887 0.0862255 0
0.207118 0.0659888 0
0.221052 0.0468543 0
0.23051 0.0284415 0
0.235393 0.0103308 0
0.235606 -0.00789715 0
0.231028 -0.0267103 0
0.221541 -0.0465767 0
0.207043 -0.068044 0
0.187431 -0.0916599 0
0.162869 -0.117844 0
0.133515 -0.147016 0
0.100558 -0.178959 0
0.0651832 -0.213455 0
0.0302701 -0.247136 0
-0.00130143 -0.276634 0
-0.0210762 -0.286475 0
-0.0205988 -0.261182 0
-0.0101474 -0.174457 0
0 0 0
0 0 0
-0.0102003 0.168614 0
-0.00642401 0.234901 0
0.0125294 0.23988 0
0.0478602 0.224567 0
0.0914417 0.198668 0
0.135147 0.171889 0
0.177239 0.145827 0
0.215981 0.122081 0
0.250581 0.100671 0
0.28025 0.0816198 0
0.30498 0.0645163 0
0.324762 0.048951 0
0.339663 0.0345283 0
0.349751 0.0208529 0
0.355024 0.00753574 0
0.355479 -0.00581207 0
0.350973 -0.0196176 0
0.341367 -0.0343078 0
0.326378 -0.0503953 0
0.305728 -0.0683924 0
0.27911 -0.0889734 0
0.24622 -0.112813 0
0.207491 -0.140181 0
0.163357 -0.17135 0
0.115418 -0.20496 0
0.065276 -0.239655 0
0.022807 -0.263177 0
-0.00211251 -0.263271 0
-0.00965677 -0.191643 0
0 0 0
0 0 0
0.0118914 0.164938 0
0.0465571 0.213314 0
0.0962932 0.198907 0
0.153396 0.175493 0
0.211737 0.148742 0
0.265188 0.124321 0
0.313149 0.102572 0
0.355019 0.0838399 0
0.390848 0.0677998 0
0.420686 0.0541276 0
0.44494 0.0422923 0
0.464017 0.031763 0
0.478187 0.0222045 0
0.487719 0.0132815 0
0.492695 0.00468638 0
0.493195 -0.00388883 0
0.489076 -0.0127786 0
0.480194 -0.0223175 0
0.466154 -0.0328963 0
0.446563 -0.0449056 0
0.420729 -0.0590953 0
0.387964 -0.0762153 0
0.347798 -0.0967967 0
0.299765 -0.121371 0
0.243803 -0.150202 0
0.17985 -0.183553 0
0.11506 -0.214288 0
0.0565844 -0.235272 0
0.0147794 -0.184508 0
0 0 0
2.77334e-30 0 0
0.0823953 0.113956 0
0.170406 0.14238 0
0.255911 0.126331 0
0.330787 0.106865 0
0.395387 0.087287 0
0.450067 0.0709003 0
0.49586 0.0572308 0
0.533799 0.0458048 0
0.564863 0.0363561 0
0.59003 0.0286188 0
0.609985 0.0221387 0
0.625413 0.0164616 0
0.636683 0.0113897 0
0.644163 0.00672508 0
0.647981 0.00227811 0
0.648265 -0.00214087 0
0.644888 -0.00673669 0
0.637725 -0.0117142 0
0.626373 -0.0172876 0
0.610431 -0.0236712 0
0.589056 -0.0314432 0
0.561408 -0.0411819 0
0.526164 -0.0532793 0
0.482 -0.0681274 0
0.427204 -0.0866431 0
0.360063 -0.109743 0
0.279678 -0.133799 0
0.185151 -0.15518 0
0.0880646 -0.126407 0
2.77334e-30 0 0
0.25 0 0
0.359151 0.0481486 0
0.457447 0.0589809 0
0.540706 0.0505592 0
0.604749 0.0409459 0
0.654205 0.0318553 0
0.6937 0.0250019 0
0.724951 0.0197309 0
0.749675 0.0153875 0
0.769092 0.0119022 0
0.784422 0.00920554 0
0.796283 0.00704477 0
0.805293 0.00516714 0
0.811753 0.00351215 0
0.815963 0.00201931 0
0.818032 0.000614719 0
0.818071 -0.000775494 0
0.815999 -0.0022308 0
0.811735 -0.00383068 0
0.805 -0.00563388 0
0.795515 -0.0076992 0
0.782632 -0.0103128 0
0.765704 -0.0137608 0
0.743321 -0.0181676 0
0.714075 -0.0236575 0
0.675858 -0.0310028 0
0.626563 -0.0409757 0
0.560159 -0.052204 0
0.470615 -0.0633155 0
0.364903 -0.0530131 0
0.25 0 0
1 0 0
1 0 0
1 0 0
1 0 0
1 0 0
1 0 0
1 0 0
1 0 0
1 0 0
1 0 0
1 0 0
1 0 0
1 0 0
1 0 0
1 0 0
1 0 0
1 0 0
1 0 0
1 0 0
1 0 0
1 0 0
1 0 0
1 0 0
1 0 0
1 0 0
1 0 0
1 0 0
1 0 0
1 0 0
1 0 0
1 0 0
      </DataArray> 
      <DataArray type="Float64" NumberOfComponents="3" Name="Real Velocity" format="ascii">
0 0 0
0 0 0
0 0 0
0 0 0
0 0 0
0 0 0
0 0 0
0 0 0
0 0 0
0 0 0
0 0 0
0 0 0
0 0 0
0 0 0