<?xml version="1.0"?>
<VTKFile type="UnstructuredGrid">
  <UnstructuredGrid>
  <Piece NumberOfPoints="961"  NumberOfCells="225">
    <Points>
      <DataArray type="Float64" NumberOfComponents="3" format="ascii">
0 0 0
0.0333333 0 0
0.0666667 0 0
0.1 0 0
0.133333 0 0
0.166667 0 0
0.2 0 0
0.233333 0 0
0.266667 0 0
0.3 0 0
0.333333 0 0
0.366667 0 0
0.4 0 0
0.433333 0 0
0.466667 0 0
0.5 0 0
0.533333 0 0
0.566667 0 0
0.6 0 0
0.633333 0 0
0.666667 0 0
0.7 0 0
0.733333 0 0
0.766667 0 0
0.8 0 0
0.833333 0 0
0.866667 0 0
0.9 0 0
0.933333 0 0
0.966667 0 0
1 0 0
0 0.0333333 0
0.0333333 0.0333333 0
0.0666667 0.0333333 0
0.1 0.0333333 0
0.133333 0.0333333 0
0.166667 0.0333333 0
0.2 0.0333333 0
0.233333 0.0333333 0
0.266667 0.0333333 0
0.3 0.0333333 0
0.333333 0.0333333 0
0.366667 0.0333333 0
0.4 0.0333333 0
0.433333 0.0333333 0
0.466667 0.0333333 0
0.5 0.0333333 0
0.533333 0.0333333 0
0.566667 0.0333333 0
0.6 0.0333333 0
0.633333 0.0333333 0
0.666667 0.0333333 0
0.7 0.0333333 0
0.733333 0.0333333 0
0.766667 0.0333333 0
0.8 0.0333333 0
0.833333 0.0333333 0
0.866667 0.0333333 0
0.9 0.0333333 0
0.933333 0.0333333 0
0.966667 0.0333333 0
1 0.0333333 0
0 0.0666667 0
0.0333333 0.0666667 0
0.0666667 0.0666667 0
0.1 0.0666667 0
0.133333 0.0666667 0
0.166667 0.0666667 0
0.2 0.0666667 0
0.233333 0.0666667 0
0.266667 0.0666667 0
0.3 0.0666667 0
0.333333 0.0666667 0
0.366667 0.0666667 0
0.4 0.0666667 0
0.433333 0.0666667 0
0.466667 0.0666667 0
0.5 0.0666667 0
0.533333 0.0666667 0
0.566667 0.0666667 0
0.6 0.0666667 0
0.633333 0.0666667 0
0.666667 0.0666667 0
0.7 0.0666667 0
0.733333 0.0666667 0
0.766667 0.0666667 0
0.8 0.0666667 0
0.833333 0.0666667 0
0.866667 0.0666667 0
0.9 0.0666667 0
0.933333 0.0666667 0
0.966667 0.0666667 0
1 0.0666667 0
0 0.1 0
0.0333333 0.1 0
0.0666667 0.1 0
0.1 0.1 0
0.133333 0.1 0
0.166667 0.1 0
0.2 0.1 0
0.233333 0.1 0
0.266667 0.1 0
0.3 0.1 0
0.333333 0.1 0
0.366667 0.1 0
0.4 0.1 0
0.433333 0.1 0
0.466667 0.1 0
0.5 0.1 0
0.533333 0.1 0
0.566667 0.1 0
0.6 0.1 0
0.633333 0.1 0
0.666667 0.1 0
0.7 0.1 0
0.733333 0.1 0
0.766667 0.1 0
0.8 0.1 0
0.833333 0.1 0
0.866667 0.1 0
0.9 0.1 0
0.933333 0.1 0
0.966667 0.1 0
1 0.1 0
0 0.133333 0
0.0333333 0.133333 0
0.0666667 0.133333 0
0.1 0.133333 0
0.133333 0.133333 0
0.166667 0.133333 0
0.2 0.133333 0
0.233333 0.133333 0
0.266667 0.133333 0
0.3 0.133333 0
0.333333 0.133333 0
0.366667 0.133333 0
0.4 0.133333 0
0.433333 0.133333 0
0.466667 0.133333 0
0.5 0.133333 0
0.533333 0.133333 0
0.566667 0.133333 0
0.6 0.133333 0
0.633333 0.133333 0
0.666667 0.133333 0
0.7 0.133333 0
0.733333 0.133333 0
0.766667 0.133333 0
0.8 0.133333 0
0.833333 0.133333 0
0.866667 0.133333 0
0.9 0.133333 0
0.933333 0.133333 0
0.966667 0.133333 0
1 0.133333 0
0 0.166667 0
0.0333333 0.166667 0
0.0666667 0.166667 0
0.1 0.166667 0
0.133333 0.166667 0
0.166667 0.166667 0
0.2 0.166667 0
0.233333 0.166667 0
0.266667 0.166667 0
0.3 0.166667 0
0.333333 0.166667 0
0.366667 0.166667 0
0.4 0.166667 0
0.433333 0.166667 0
0.466667 0.166667 0
0.5 0.166667 0
0.533333 0.166667 0
0.566667 0.166667 0
0.6 0.166667 0
0.633333 0.166667 0
0.666667 0.166667 0
0.7 0.166667 0
0.733333 0.166667 0
0.766667 0.166667 0
0.8 0.166667 0
0.833333 0.166667 0
0.866667 0.166667 0
0.9 0.166667 0
0.933333 0.166667 0
0.966667 0.166667 0
1 0.166667 0
0 0.2 0
0.0333333 0.2 0
0.0666667 0.2 0
0.1 0.2 0
0.133333 0.2 0
0.166667 0.2 0
0.2 0.2 0
0.233333 0.2 0
0.266667 0.2 0
0.3 0.2 0
0.333333 0.2 0
0.366667 0.2 0
0.4 0.2 0
0.433333 0.2 0
0.466667 0.2 0
0.5 0.2 0
0.533333 0.2 0
0.566667 0.2 0
0.6 0.2 0
0.633333 0.2 0
0.666667 0.2 0
0.7 0.2 0
0.733333 0.2 0
0.766667 0.2 0
0.8 0.2 0
0.833333 0.2 0
0.866667 0.2 0
0.9 0.2 0
0.933333 0.2 0
0.966667 0.2 0
1 0.2 0
0 0.233333 0
0.0333333 0.233333 0
0.0666667 0.233333 0
0.1 0.233333 0
0.133333 0.233333 0
0.166667 0.233333 0
0.2 0.233333 0
0.233333 0.233333 0
0.266667 0.233333 0
0.3 0.233333 0
0.333333 0.233333 0
0.366667 0.233333 0
0.4 0.233333 0
0.433333 0.233333 0
0.466667 0.233333 0
0.5 0.233333 0
0.533333 0.233333 0
0.566667 0.233333 0
0.6 0.233333 0
0.633333 0.233333 0
0.666667 0.233333 0
0.7 0.233333 0
0.733333 0.233333 0
0.766667 0.233333 0
0.8 0.233333 0
0.833333 0.233333 0
0.866667 0.233333 0
0.9 0.233333 0
0.933333 0.233333 0
0.966667 0.233333 0
1 0.233333 0
0 0.266667 0
0.0333333 0.266667 0
0.0666667 0.266667 0
0.1 0.266667 0
0.133333 0.266667 0
0.166667 0.266667 0
0.2 0.266667 0
0.233333 0.266667 0
0.266667 0.266667 0
0.3 0.266667 0
0.333333 0.266667 0
0.366667 0.266667 0
0.4 0.266667 0
0.433333 0.266667 0
0.466667 0.266667 0
0.5 0.266667 0
0.533333 0.266667 0
0.566667 0.266667 0
0.6 0.266667 0
0.633333 0.266667 0
0.666667 0.266667 0
0.7 0.266667 0
0.733333 0.266667 0
0.766667 0.266667 0
0.8 0.266667 0
0.833333 0.266667 0
0.866667 0.266667 0
0.9 0.266667 0
0.933333 0.266667 0
0.966667 0.266667 0
1 0.266667 0
0 0.3 0
0.0333333 0.3 0
0.0666667 0.3 0
0.1 0.3 0
0.133333 0.3 0
0.166667 0.3 0
0.2 0.3 0
0.233333 0.3 0
0.266667 0.3 0
0.3 0.3 0
0.333333 0.3 0
0.366667 0.3 0
0.4 0.3 0
0.433333 0.3 0
0.466667 0.3 0
0.5 0.3 0
0.533333 0.3 0
0.566667 0.3 0
0.6 0.3 0
0.633333 0.3 0
0.666667 0.3 0
0.7 0.3 0
0.733333 0.3 0
0.766667 0.3 0
0.8 0.3 0
0.833333 0.3 0
0.866667 0.3 0
0.9 0.3 0
0.933333 0.3 0
0.966667 0.3 0
1 0.3 0
0 0.333333 0
0.0333333 0.333333 0
0.0666667 0.333333 0
0.1 0.333333 0
0.133333 0.333333 0
0.166667 0.333333 0
0.2 0.333333 0
0.233333 0.333333 0
0.266667 0.333333 0
0.3 0.333333 0
0.333333 0.333333 0
0.366667 0.333333 0
0.4 0.333333 0
0.433333 0.333333 0
0.466667 0.333333 0
0.5 0.333333 0
0.533333 0.333333 0
0.566667 0.333333 0
0.6 0.333333 0
0.633333 0.333333 0
0.666667 0.333333 0
0.7 0.333333 0
0.733333 0.333333 0
0.766667 0.333333 0
0.8 0.333333 0
0.833333 0.333333 0
0.866667 0.333333 0
0.9 0.333333 0
0.933333 0.333333 0
0.966667 0.333333 0
1 0.333333 0
0 0.366667 0
0.0333333 0.366667 0
0.0666667 0.366667 0
0.1 0.366667 0
0.133333 0.366667 0
0.166667 0.366667 0
0.2 0.366667 0
0.233333 0.366667 0
0.266667 0.366667 0
0.3 0.366667 0
0.333333 0.366667 0
0.366667 0.366667 0
0.4 0.366667 0
0.433333 0.366667 0
0.466667 0.366667 0
0.5 0.366667 0
0.533333 0.366667 0
0.566667 0.366667 0
0.6 0.366667 0
0.633333 0.366667 0
0.666667 0.366667 0
0.7 0.366667 0
0.733333 0.366667 0
0.766667 0.366667 0
0.8 0.366667 0
0.833333 0.366667 0
0.866667 0.366667 0
0.9 0.366667 0
0.933333 0.366667 0
0.966667 0.366667 0
1 0.366667 0
0 0.4 0
0.0333333 0.4 0
0.0666667 0.4 0
0.1 0.4 0
0.133333 0.4 0
0.166667 0.4 0
0.2 0.4 0
0.233333 0.4 0
0.266667 0.4 0
0.3 0.4 0
0.333333 0.4 0
0.366667 0.4 0
0.4 0.4 0
0.433333 0.4 0
0.466667 0.4 0
0.5 0.4 0
0.533333 0.4 0
0.566667 0.4 0
0.6 0.4 0
0.633333 0.4 0
0.666667 0.4 0
0.7 0.4 0
0.733333 0.4 0
0.766667 0.4 0
0.8 0.4 0
0.833333 0.4 0
0.866667 0.4 0
0.9 0.4 0
0.933333 0.4 0
0.966667 0.4 0
1 0.4 0
0 0.433333 0
0.0333333 0.433333 0
0.0666667 0.433333 0
0.1 0.433333 0
0.133333 0.433333 0
0.166667 0.433333 0
0.2 0.433333 0
0.233333 0.433333 0
0.266667 0.433333 0
0.3 0.433333 0
0.333333 0.433333 0
0.366667 0.433333 0
0.4 0.433333 0
0.433333 0.433333 0
0.466667 0.433333 0
0.5 0.433333 0
0.533333 0.433333 0
0.566667 0.433333 0
0.6 0.433333 0
0.633333 0.433333 0
0.666667 0.433333 0
0.7 0.433333 0
0.733333 0.433333 0
0.766667 0.433333 0
0.8 0.433333 0
0.833333 0.433333 0
0.866667 0.433333 0
0.9 0.433333 0
0.933333 0.433333 0
0.966667 0.433333 0
1 0.433333 0
0 0.466667 0
0.0333333 0.466667 0
0.0666667 0.466667 0
0.1 0.466667 0
0.133333 0.466667 0
0.166667 0.466667 0
0.2 0.466667 0
0.233333 0.466667 0
0.266667 0.466667 0
0.3 0.466667 0
0.333333 0.466667 0
0.366667 0.466667 0
0.4 0.466667 0
0.433333 0.466667 0
0.466667 0.466667 0
0.5 0.466667 0
0.533333 0.466667 0
0.566667 0.466667 0
0.6 0.466667 0
0.633333 0.466667 0
0.666667 0.466667 0
0.7 0.466667 0
0.733333 0.466667 0
0.766667 0.466667 0
0.8 0.466667 0
0.833333 0.466667 0
0.866667 0.466667 0
0.9 0.466667 0
0.933333 0.466667 0
0.966667 0.466667 0
1 0.466667 0
0 0.5 0
0.0333333 0.5 0
0.0666667 0.5 0
0.1 0.5 0
0.133333 0.5 0
0.166667 0.5 0
0.2 0.5 0
0.233333 0.5 0
0.266667 0.5 0
0.3 0.5 0
0.333333 0.5 0
0.366667 0.5 0
0.4 0.5 0
0.433333 0.5 0
0.466667 0.5 0
0.5 0.5 0
0.533333 0.5 0
0.566667 0.5 0
0.6 0.5 0
0.633333 0.5 0
0.666667 0.5 0
0.7 0.5 0
0.733333 0.5 0
0.766667 0.5 0
0.8 0.5 0
0.833333 0.5 0
0.866667 0.5 0
0.9 0.5 0
0.933333 0.5 0
0.966667 0.5 0
1 0.5 0
0 0.533333 0
0.0333333 0.533333 0
0.0666667 0.533333 0
0.1 0.533333 0
0.133333 0.533333 0
0.166667 0.533333 0
0.2 0.533333 0
0.233333 0.533333 0
0.266667 0.533333 0
0.3 0.533333 0
0.333333 0.533333 0
0.366667 0.533333 0
0.4 0.533333 0
0.433333 0.533333 0
0.466667 0.533333 0
0.5 0.533333 0
0.533333 0.533333 0
0.566667 0.533333 0
0.6 0.533333 0
0.633333 0.533333 0
0.666667 0.533333 0
0.7 0.533333 0
0.733333 0.533333 0
0.766667 0.533333 0
0.8 0.533333 0
0.833333 0.533333 0
0.866667 0.533333 0
0.9 0.533333 0
0.933333 0.533333 0
0.966667 0.533333 0
1 0.533333 0
0 0.566667 0
0.0333333 0.566667 0
0.0666667 0.566667 0
0.1 0.566667 0
0.133333 0.566667 0
0.166667 0.566667 0
0.2 0.566667 0
0.233333 0.566667 0
0.266667 0.566667 0
0.3 0.566667 0
0.333333 0.566667 0
0.366667 0.566667 0
0.4 0.566667 0
0.433333 0.566667 0
0.466667 0.566667 0
0.5 0.566667 0
0.533333 0.566667 0
0.566667 0.566667 0
0.6 0.566667 0
0.633333 0.566667 0
0.666667 0.566667 0
0.7 0.566667 0
0.733333 0.566667 0
0.766667 0.566667 0
0.8 0.566667 0
0.833333 0.566667 0
0.866667 0.566667 0
0.9 0.566667 0
0.933333 0.566667 0
0.966667 0.566667 0
1 0.566667 0
0 0.6 0
0.0333333 0.6 0
0.0666667 0.6 0
0.1 0.6 0
0.133333 0.6 0
0.166667 0.6 0
0.2 0.6 0
0.233333 0.6 0
0.266667 0.6 0
0.3 0.6 0
0.333333 0.6 0
0.366667 0.6 0
0.4 0.6 0
0.433333 0.6 0
0.466667 0.6 0
0.5 0.6 0
0.533333 0.6 0
0.566667 0.6 0
0.6 0.6 0
0.633333 0.6 0
0.666667 0.6 0
0.7 0.6 0
0.733333 0.6 0
0.766667 0.6 0
0.8 0.6 0
0.833333 0.6 0
0.866667 0.6 0
0.9 0.6 0
0.933333 0.6 0
0.966667 0.6 0
1 0.6 0
0 0.633333 0
0.0333333 0.633333 0
0.0666667 0.633333 0
0.1 0.633333 0
0.133333 0.633333 0
0.166667 0.633333 0
0.2 0.633333 0
0.233333 0.633333 0
0.266667 0.633333 0
[...]
    <PointData>
      <DataArray type="Float64" NumberOfComponents="3" Name="Velocity" format="ascii">
0 0 0
0 0 0
0 0 0
0 0 0
0 0 0
0 0 0
0 0 0
0 0 0
0 0 0
0 0 0
0 0 0
0 0 0
0 0 0
0 0 0
0 0 0
0 0 0
0 0 0
0 0 0
0 0 0
0 0 0
0 0 0
0 0 0
0 0 0
0 0 0
0 0 0
0 0 0
0 0 0
0 0 0
0 0 0
0 0 0
0 0 0
0 0 0
-0.000479176 0.000433973 0
-0.001438 0.000959151 0
-0.00301841 0.00146963 0
-0.00536235 0.00185948 0
-0.00813925 0.00208845 0
-0.0110185 0.00211625 0
-0.013884 0.00201806 0
-0.0166196 0.00186909 0
-0.0191244 0.00166847 0
-0.0212975 0.00141532 0
-0.0231045 0.00113033 0
-0.0245114 0.00083415 0
-0.0254954 0.000527276 0
-0.0260338 0.0002102 0
-0.0261205 -0.000111343 0
-0.0257495 -0.000431619 0
-0.0249348 -0.000740233 0
-0.0236908 -0.00102679 0
-0.0220554 -0.00129239 0
-0.0200664 -0.00153812 0
-0.0177705 -0.00173846 0
-0.0152143 -0.00186788 0
-0.0125119 -0.00194015 0
-0.00977729 -0.00196906 0
-0.00709849 -0.00188862 0
-0.00456339 -0.00163289 0
-0.00246646 -0.00124463 0
-0.00110215 -0.000766624 0
-0.000327613 -0.00031353 0
0 0 0
0 0 0
-0.000712649 0.00110235 0
-0.00301333 0.00271062 0
-0.00659311 0.00429941 0
-0.0111431 0.0053433 0
-0.0162643 0.00590666 0
-0.0215578 0.00605385 0
-0.0267852 0.00587905 0
-0.0317082 0.00547646 0
-0.0361915 0.00489601 0
-0.0400999 0.00418762 0
-0.0433641 0.00338573 0
-0.0459148 0.00252475 0
-0.0477037 0.00161604 0
-0.0486825 0.000670966 0
-0.0488401 -0.000288903 0
-0.0481653 -0.00124199 0
-0.0466812 -0.00216365 0
-0.044411 -0.00302924 0
-0.0414262 -0.00382082 0
-0.0377985 -0.00452044 0
-0.0336303 -0.00509684 0
-0.0290244 -0.00551876 0
-0.0241319 -0.00574713 0
-0.019104 -0.00574288 0
-0.0141786 -0.00545225 0
-0.00959366 -0.00482152 0
-0.00563131 -0.00379205 0
-0.00257375 -0.00230521 0
-0.000627727 -0.000871142 0
0 0 0
0 0 0
-0.00126223 0.00290204 0
-0.00498143 0.00623499 0
-0.0104335 0.00923189 0
-0.0168944 0.0111258 0
-0.0239626 0.0120945 0
-0.0312367 0.0123158 0
-0.0383901 0.0119352 0
-0.0450962 0.0110984 0
-0.0512032 0.00991566 0
-0.056559 0.00849722 0
-0.0610534 0.00689153 0
-0.0645759 0.00514706 0
-0.067056 0.00329633 0
-0.0684231 0.00137188 0
-0.0686589 -0.000582764 0
-0.0677452 -0.0025241 0
-0.0657147 -0.00440379 0
-0.0626 -0.00617354 0
-0.0584998 -0.00778408 0
-0.053513 -0.00918617 0
-0.0477993 -0.0103393 0
-0.0415182 -0.0112028 0
-0.0348379 -0.0116864 0
-0.0279265 -0.0116997 0
-0.0211199 -0.0111697 0
-0.0147536 -0.0100234 0
-0.00908611 -0.00812932 0
-0.00437578 -0.00535605 0
-0.00116596 -0.0024106 0
0 0 0
0 0 0
-0.00268972 0.00672994 0
-0.00759771 0.0125128 0
-0.014249 0.0170096 0
-0.0221685 0.0198813 0
-0.0308217 0.0212917 0
-0.0396743 0.021405 0
-0.0483853 0.0205389 0
-0.0566143 0.0190113 0
-0.0641613 0.0169605 0
-0.0708265 0.0145244 0
-0.0764472 0.0117731 0
-0.0808606 0.00877634 0
-0.0839834 0.00559816 0
-0.0857321 0.00230253 0
-0.0860767 -0.00104301 0
-0.0849872 -0.00437092 0
-0.0825114 -0.0075942 0
-0.0786974 -0.0106259 0
-0.0736632 -0.0133809 0
-0.0675268 -0.0157745 0
-0.0604972 -0.0177298 0
-0.0527835 -0.0191701 0
-0.0446076 -0.0200233 0
-0.0361913 -0.0202176 0
-0.0278017 -0.0195196 0
-0.019706 -0.0176959 0
-0.0124224 -0.0147435 0
-0.00646922 -0.0106595 0
-0.00220794 -0.00566967 0
0 0 0
0 0 0
-0.00378553 0.0110165 0
-0.00994934 0.01948 0
-0.0179747 0.0255516 0
-0.0273448 0.0293921 0
-0.0374428 0.0312215 0
-0.0476518 0.0312595 0
-0.0576706 0.0299584 0
-0.0671979 0.0277706 0
-0.0759801 0.0248448 0
-0.0837636 0.0213299 0
-0.0903544 0.0173329 0
-0.0955586 0.0129609 0
-0.0992713 0.00830793 0
-0.101388 0.00346796 0
-0.101861 -0.00145576 0
-0.100643 -0.00635999 0
-0.0977912 -0.0111104 0
-0.0933632 -0.0155726 0
-0.0875002 -0.0196212 0
-0.0803435 -0.0231309 0
-0.0721401 -0.0259755 0
-0.0631366 -0.0280288 0
-0.0536282 -0.0292541 0
-0.0439098 -0.0296149 0
-0.0341727 -0.028763 0
-0.0246081 -0.0263504 0
-0.0158521 -0.0223574 0
-0.00854083 -0.0167642 0
-0.00311116 -0.00937655 0
0 0 0
0 0 0
-0.00334009 0.0141923 0
-0.0111235 0.0250726 0
-0.0215458 0.0327768 0
-0.0328029 0.0374407 0
-0.0444271 0.0396068 0
-0.0559509 0.0398174 0
-0.0671457 0.0384624 0
-0.0777827 0.0359318 0
-0.087574 0.0323832 0
-0.0962314 0.0279742 0
-0.103584 0.0228733 0
-0.109459 0.0172489 0
-0.113706 0.011212 0
-0.116169 0.00487323 0
-0.116778 -0.00160713 0
-0.115464 -0.00806884 0
-0.112274 -0.0143279 0
-0.107257 -0.0202002 0
-0.100594 -0.0255148 0
-0.0924669 -0.0301008 0
-0.0831438 -0.0337833 0
-0.0728937 -0.0363871 0
-0.0620869 -0.037875 0
-0.0510937 -0.0382095 0
-0.0401814 -0.0371605 0
-0.0296172 -0.034498 0
-0.0195873 -0.0296936 0
-0.0102774 -0.022219 0
-0.0032331 -0.0122594 0
0 0 0
0 0 0
-0.00301552 0.0199829 0
-0.0119204 0.0342839 0
-0.0240305 0.0437378 0
-0.036662 0.0491796 0
-0.0495646 0.0515237 0
-0.062488 0.0516849 0
-0.0751014 0.0499858 0
-0.0870737 0.0467487 0
-0.098103 0.0421925 0
-0.107887 0.0365357 0
-0.116244 0.0299759 0
-0.122993 0.0227107 0
-0.127935 0.0148728 0
-0.130873 0.00659487 0
-0.131716 -0.00190346 0
-0.130373 -0.0104025 0
-0.126879 -0.018649 0
-0.121272 -0.0263896 0
-0.113758 -0.0333921 0
-0.104542 -0.0394243 0
-0.0939303 -0.0442598 0
-0.0822295 -0.047672 0
-0.0698731 -0.0495689 0
-0.0572946 -0.0498583 0
-0.0449831 -0.0484907 0
-0.0334279 -0.0454165 0
-0.022365 -0.0397918 0
-0.011531 -0.0307726 0
-0.00328836 -0.0177212 0
0 0 0
0 0 0
-0.00447397 0.032114 0
-0.0131404 0.0521075 0
-0.0244971 0.0634875 0
-0.0370417 0.0697612 0
-0.0506455 0.0720483 0
-0.0651797 0.0714686 0
-0.0798285 0.0684637 0
-0.0937759 0.0634752 0
-0.106727 0.0568894 0
-0.118388 0.0490926 0
-0.128446 0.0402224 0
-0.136588 0.0304165 0
-0.142609 0.0198528 0
-0.146301 0.00870944 0
-0.147562 -0.00275107 0
-0.14629 -0.0142661 0
-0.142523 -0.0254762 0
-0.1363 -0.0360219 0
-0.127802 -0.0455835 0
-0.117213 -0.0538414 0
-0.104921 -0.0605118 0
-0.091319 -0.0653105 0
-0.0768762 -0.068019 0
-0.0620642 -0.0684182 0
-0.0477334 -0.0665318 0
-0.0347345 -0.0623836 0
-0.0229228 -0.0556915 0
-0.0121538 -0.0461733 0
-0.00399155 -0.0291645 0
0 0 0
0 0 0
-0.00526329 0.0414319 0
-0.0129899 0.0661339 0
-0.0231005 0.0795736 0
-0.0355154 0.087219 0
-0.0498334 0.0901177 0
-0.0656532 0.0893173 0
-0.0818736 0.0854587 0
-0.0973937 0.0791827 0
-0.111901 0.0709871 0
-0.125083 0.0613696 0
-0.136522 0.050432 0
-0.145799 0.0382762 0
-0.152711 0.0251462 0
-0.157059 0.0112858 0
-0.158734 -0.00299749 0
-0.157631 -0.0173961 0
-0.153777 -0.0314607 0
-0.147201 -0.0447417 0
-0.138054 -0.0568139 0
-0.126486 -0.0672521 0
-0.112935 -0.0757067 0
-0.0978404 -0.0818282 0
-0.0817119 -0.0852677 0
-0.0650589 -0.0856762 0
-0.0489612 -0.08304 0
-0.0344984 -0.0773453 0
-0.0220087 -0.0690567 0
-0.01183 -0.0586391 0
-0.00436085 -0.0382382 0
0 0 0
0 0 0
-0.00293131 0.0387826 0
-0.00967522 0.0639533 0
-0.0199956 0.0795439 0
-0.0336565 0.0895863 0
-0.0492918 0.0946689 0
-0.0655353 0.09538 0
-0.0817833 0.0925334 0
-0.0974318 0.086943 0
-0.112079 0.0789989 0
-0.125323 0.0690913 0
-0.136807 0.0574238 0
-0.146177 0.0442 0
-0.153227 0.0297473 0
-0.157754 0.0143929 0
-0.159651 -0.00149024 0
-0.158809 -0.0175291 0
-0.155211 -0.0332536 0
-0.148838 -0.0481936 0
-0.139839 -0.0618081 0
-0.128367 -0.0735561 0
-0.114788 -0.083012 0
-0.0994721 -0.0897505 0
-0.0829958 -0.0933577 0
-0.0659351 -0.0934196 0
-0.0491952 -0.0897712 0
-0.0336812 -0.0822474 0
-0.0203712 -0.0715518 0
-0.0102436 -0.0583875 0
-0.00341444 -0.0365913 0
0 0 0
0 0 0
-0.0011572 0.0325129 0
-0.00759603 0.0568891 0
-0.0185357 0.0746495 0
-0.0331952 0.0873152 0
-0.0495509 0.0949982 0
-0.0655787 0.0978104 0
-0.0812004 0.0966229 0
-0.0963377 0.0923066 0
-0.1105 0.0851313 0
-0.123195 0.0753667 0
-0.134171 0.063371 0
-0.143176 0.0495023 0
-0.15001 0.034166 0
-0.154475 0.0177671 0
-0.156471 0.000741477 0
-0.155898 -0.0164752 0
-0.152701 -0.033418 0
-0.146828 -0.0496221 0
-0.138418 -0.0644624 0
-0.127607 -0.0773137 0
-0.11466 -0.0876487 0
-0.0998388 -0.0949399 0
-0.0837494 -0.0987149 0
-0.0669985 -0.0985013 0
-0.0502357 -0.0939587 0
-0.0341107 -0.0847469 0
-0.0200723 -0.0714521 0
-0.00956917 -0.0546606 0
-0.00280909 -0.0317255 0
0 0 0
0 0 0
-0.00362009 0.0309694 0
-0.0111521 0.0562643 0
-0.0220735 0.0761417 0
-0.0358617 0.090858 0
-0.051141 0.100402 0
-0.0665356 0.104762 0
-0.0817676 0.104662 0
-0.0965593 0.100824 0
-0.110403 0.0935911 0
-0.12279 0.0833048 0
-0.133485 0.0704466 0
-0.142249 0.0554977 0
-0.148913 0.0389125 0
-0.153308 0.0211451 0
-0.155353 0.00266849 0
-0.154967 -0.0160447 0
-0.152123 -0.0345172 0
-0.146793 -0.0522717 0
-0.139048 -0.0686729 0
-0.12896 -0.0830853 0
-0.116732 -0.0948377 0
-0.102565 -0.103259 0
-0.0869943 -0.107765 0
-0.0705545 -0.107774 0
-0.0538824 -0.102836 0
-0.0376151 -0.0925003 0
-0.0231741 -0.077033 0
-0.0119812 -0.0567003 0
-0.00420155 -0.0311425 0
0 0 0
0 0 0
-0.00664961 0.0336161 0
-0.0156118 0.0617136 0
-0.026679 0.0841309 0
-0.0396434 0.100707 0
-0.0539773 0.111553 0
-0.0691531 0.116781 0
-0.0844942 0.116995 0
-0.0993241 0.112801 0
-0.113155 0.104709 0
-0.125499 0.093231 0
-0.136125 0.0789416 0
-0.144802 0.0624159 0
-0.151402 0.0441365 0
-0.155793 0.0245856 0
-0.157918 0.0042471 0
-0.157718 -0.0163949 0
-0.155194 -0.0368401 0
-0.150344 -0.0565883 0
-0.143161 -0.0750079 0
-0.133634 -0.0914675 0
-0.121906 -0.105152 0
-0.10812 -0.115248 0
-0.0927194 -0.12102 0
-0.0761456 -0.121732 0
-0.0591314 -0.116796 0
-0.0424092 -0.105623 0
-0.0272631 -0.0881381 0
-0.0149772 -0.0642664 0
-0.00580495 -0.0346671 0
0 0 0
0 0 0
-0.00657539 0.0399173 0
-0.0162437 0.0728712 0
-0.0284221 0.0987281 0
-0.0425279 0.117354 0
-0.0579753 0.129123 0
-0.0741784 0.134411 0
-0.0903892 0.133967 0
-0.10586 0.128542 0
-0.120123 0.118817 0
-0.13271 0.105471 0
-0.143468 0.0891465 0
-0.152242 0.0704866 0
-0.15894 0.0499879 0
-0.16347 0.0281471 0
-0.165789 0.00543364 0
-0.165851 -0.0176832 0
-0.163629 -0.0406762 0
-0.159097 -0.0630181 0
-0.152189 -0.084036 0
-0.142838 -0.103057 0
-0.131087 -0.119166 0
-0.116975 -0.13145 0
-0.100914 -0.13899 0
-0.0833141 -0.140867 0
-0.0649781 -0.136231 0
-0.0467082 -0.12423 0
-0.0299263 -0.104611 0
-0.0160544 -0.0771186 0
-0.00583239 -0.0421244 0
0 0 0
0 0 0
-0.00547597 0.047529 0
-0.0156052 0.0861285 0
-0.029203 0.115787 0
-0.045085 0.136495 0
-0.0622649 0.148967 0
-0.0797565 0.153921 0
-0.0968665 0.152369 0
-0.112901 0.145322 0
-0.127457 0.133639 0
-0.14013 0.118181 0
-0.150859 0.0996416 0
-0.159583 0.078715 0
-0.166265 0.0559055 0
-0.170867 0.0317174 0
-0.173359 0.00658907 0
-0.173711 -0.019041 0
-0.171849 -0.0446409 0
-0.167701 -0.0696784 0
-0.161145 -0.093434 0
-0.152056 -0.115188 0
-0.140364 -0.133952 0
-0.126 -0.148737 0
-0.109319 -0.158396 0
-0.0906774 -0.161781 0
-0.0709263 -0.15772 0
-0.0509169 -0.145037 0
-0.032293 -0.123267 0
-0.0166987 -0.0919423 0
-0.00548417 -0.0509057 0
0 0 0
0 0 0
-0.0054299 0.0541075 0
-0.0162539 0.0978766 0
-0.030922 0.131163 0
-0.0478845 0.153824 0
-0.0659764 0.166937 0
-0.0840327 0.171581 0
-0.10134 0.168994 0
-0.117184 0.160413 0
-0.13131 0.1469 0
-0.143465 0.129518 0
-0.153643 0.109007 0
-0.161844 0.0861063 0
-0.168118 0.0613281 0
-0.172513 0.0351839 0
-0.175024 0.00807433 0
-0.175644 -0.0196 0
-0.174272 -0.04735 0
-0.170809 -0.0746863 0
-0.165045 -0.100879 0
-0.156769 -0.125197 0
-0.145827 -0.146583 0
-0.132065 -0.16398 0
-0.115676 -0.175955 0
-0.0968529 -0.181076 0
-0.0764793 -0.177844 0
-0.0554402 -0.164761 0
-0.0354931 -0.140922 0
-0.0183958 -0.105423 0
-0.00596057 -0.0584024 0
0 0 0
0 0 0
-0.00589316 0.0609625 0
-0.0175308 0.109852 0
-0.0330905 0.146542 0
-0.0507497 0.170907 0
-0.06921 0.184386 0
-0.0871729 0.188419 0
-0.103961 0.184541 0
-0.118898 0.174288 0
-0.131895 0.158904 0
-0.142864 0.139632 0
-0.15189 0.11727 0
-0.159059 0.0926142 0
-0.164518 0.066161 0
-0.168414 0.038408 0
-0.170776 0.00970273 0
-0.171632 -0.0196074 0
-0.170865 -0.0491098 0
-0.168357 -0.0783922 0
-0.163812 -0.106761 0
-0.156932 -0.133521 0
-0.147449 -0.157546 0
-0.135092 -0.177705 0
-0.119851 -0.192298 0
-0.101713 -0.199621 0
-0.0814851 -0.197741 0
-0.0599728 -0.184725 0
-0.0390469 -0.159127 0
-0.0205777 -0.119501 0
-0.00681282 -0.0663053 0
0 0 0
0 0 0
-0.0063217 0.0694034 0
-0.0187772 0.12379 0
-0.0352201 0.163608 0
-0.053504 0.189308 0
-0.072066 0.202666 0
-0.0893431 0.205463 0
-0.104884 0.19971 0
-0.118235 0.187419 0
-0.129425 0.169954 0
-0.138479 0.148674 0
-0.145667 0.124461 0
-0.15126 0.0981925 0
-0.155486 0.0703094 0
-0.158575 0.0412509 0
-0.160605 0.0112875 0
-0.161656 -0.0193104 0
-0.161593 -0.0502269 0
-0.160283 -0.0811463 0
-0.15737 -0.11147 0
-0.152501 -0.140599 0
-0.145202 -0.167325 0
-0.135003 -0.190438 0
-0.12171 -0.208054 0
-0.105132 -0.218288 0
-0.0857914 -0.21855 0
-0.0642093 -0.206253 0
-0.0424747 -0.179431 0
-0.0226764 -0.136115 0
-0.00759216 -0.0763054 0
0 0 0
0 0 0
-0.0067777 0.0788418 0
-0.0201763 0.138972 0
-0.0374653 0.181605 0
-0.0559138 0.207954 0
-0.0738622 0.220398 0
-0.0896509 0.221314 0
-0.103065 0.213191 0
-0.113889 0.19852 0
-0.122344 0.178809 0
-0.128651 0.15557 0
-0.13328 0.129715 0
-0.136699 0.102162 0
-0.139221 0.0732689 0
-0.141161 0.0433972 0
-0.14265 0.0127142 0
-0.143822 -0.0186124 0
-0.144539 -0.0503883 0
-0.144664 -0.0824196 0
-0.143798 -0.114238 0
-0.141542 -0.145376 0
-0.13722 -0.174622 0
-0.130155 -0.200764 0
-0.119878 -0.221731 0
-0.105919 -0.23545 0
-0.088468 -0.238658 0
-0.0677143 -0.228091 0
-0.0457846 -0.200955 0
-0.0248053 -0.154455 0
-0.00835196 -0.0877507 0
0 0 0
0 0 0
-0.0073233 0.0886894 0
-0.0219117 0.154679 0
-0.0399807 0.199772 0
-0.0577456 0.225774 0
-0.0739166 0.236202 0
-0.0872038 0.234573 0
-0.0974634 0.223677 0
-0.104552 0.206302 0
-0.109096 0.184231 0
-0.111722 0.159245 0
-0.113032 0.132172 0
-0.113624 0.103842 0
-0.11392 0.0745352 0
-0.114338 0.0445314 0
-0.115053 0.0138682 0
-0.116239 -0.0174168 0
-0.117785 -0.0492813 0
-0.119579 -0.081683 0
-0.121175 -0.114296 0
-0.122124 -0.146796 0
-0.121635 -0.178135 0
-0.11891 -0.207267 0
-0.112983 -0.231835 0
-0.102885 -0.249482 0
-0.088585 -0.25645 0
-0.0700525 -0.248982 0
-0.0489844 -0.22282 0
-0.027078 -0.173709 0
-0.00914563 -0.0999892 0
0 0 0
0 0 0
-0.00821617 0.0995797 0
-0.0236533 0.170993 0
-0.0417513 0.217381 0
-0.05795 0.241883 0
-0.0712303 0.249216 0
-0.080573 0.244096 0
-0.086161 0.229785 0
-0.0881771 0.209546 0
-0.0876703 0.185293 0
-0.0856896 0.158941 0
-0.0829412 0.131187 0
-0.0801317 0.102728 0
-0.0777643 0.0737357 0
-0.0763422 0.0443794 0
-0.07607 0.0145583 0
-0.0771522 -0.0158287 0
-0.0795192 -0.0469006 0
-0.0831017 -0.0787769 0
-0.0874409 -0.111308 0
-0.0920782 -0.144346 0
-0.0961593 -0.177086 0
-0.0988299 -0.208723 0
-0.0986366 -0.236821 0
-0.0941259 -0.258944 0
-0.084736 -0.270687 0
-0.069905 -0.267648 0
-0.0509318 -0.243943 0
-0.0291151 -0.193692 0
-0.0102171 -0.113506 0
0 0 0
0 0 0
-0.00971394 0.112146 0
-0.0250712 0.188 0
-0.0417622 0.233703 0
-0.0554775 0.255396 0
-0.0648044 0.258575 0
-0.06833 0.248735 0
-0.0672393 0.230134 0
-0.0627173 0.207029 0
-0.0560565 0.181068 0
-0.0485493 0.153898 0
-0.0410254 0.126115 0
-0.0343145 0.0983142 0
-0.0289368 0.0704977 0
-0.0254124 0.042667 0
-0.0239622 0.0145931 0
-0.0248073 -0.0139531 0
-0.0279279 -0.0432413 0
-0.0333044 -0.0735414 0
-0.0405393 -0.104938 0
-0.049235 -0.137514 0
-0.0585088 -0.170695 0
-0.0674777 -0.203907 0
-0.0744512 -0.235142 0
-0.0777387 -0.262394 0
-0.0755146 -0.280128 0
-0.0659532 -0.282812 0
-0.0504843 -0.263244 0
-0.0305375 -0.214218 0
-0.0118103 -0.128787 0
0 0 0
0 0 0
-0.010648 0.125061 0
-0.0257604 0.204255 0
-0.0402491 0.247302 0
-0.0490256 0.263921 0
-0.0513832 0.261101 0
-0.0466151 0.245836 0
-0.0369205 0.22302 0
-0.0244983 0.197552 0
-0.0107703 0.170651 0
0.0028416 0.143538 0
0.0154708 0.116653 0
0.0262506 0.0904395 0
0.0347153 0.0647188 0
0.0403993 0.0393146 0
0.043091 0.0138906 0
0.0425785 -0.0118891 0
0.0388292 -0.0384164 0
0.0318101 -0.0660828 0
0.021792 -0.0952029 0
0.00904578 -0.126091 0
-0.00562626 -0.158445 0
-0.0214217 -0.191961 0
-0.0366244 -0.225287 0
-0.0495183 -0.257072 0
-0.0570821 -0.281183 0
-0.0562947 -0.291491 0
-0.0474164 -0.278688 0
-0.0307074 -0.233469 0
-0.0127184 -0.144388 0
0 0 0
0 0 0
-0.00984966 0.136994 0
-0.0253162 0.218315 0
-0.0374476 0.256745 0
-0.0372916 0.265064 0
-0.0277112 0.253616 0
-0.0115691 0.232741 0
0.00857317 0.20674 0
0.0301543 0.179915 0
0.0516726 0.153138 0
0.0716265 0.127282 0
0.0893025 0.1025 0
0.103987 0.0789435 0
0.115345 0.0562964 0
0.123041 0.0342421 0
0.12691 0.0123687 0
0.126788 -0.00973596 0
0.122593 -0.0325388 0
0.114239 -0.0565071 0
0.101815 -0.0821237 0
0.085405 -0.109872 0
0.0655451 -0.139818 0
0.0427698 -0.172027 0
0.0186459 -0.205745 0
-0.00525947 -0.240219 0
-0.0255995 -0.270264 0
-0.0390271 -0.290699 0
-0.0415028 -0.288245 0
-0.0289872 -0.249624 0
-0.0117348 -0.158865 0
0 0 0
0 0 0
-0.00912104 0.150596 0
-0.0201449 0.228862 0
-0.0233554 0.256057 0
-0.00903613 0.253439 0
0.0161372 0.233337 0
0.0454888 0.208084 0
0.0766515 0.1807 0
0.107258 0.154205 0
0.135965 0.129105 0
0.161428 0.105906 0
0.18324 0.08444 0
0.200995 0.0645367 0
0.214547 0.0457966 0
0.22375 0.0278198 0
0.228514 0.0101662 0
0.22875 -0.00760432 0
0.224335 -0.0259782 0
0.215144 -0.0454419 0
0.201063 -0.066557 0
0.181975 -0.0898851 0
0.158021 -0.115855 0
0.129338 -0.144893 0
0.0970871 -0.176789 0
0.062426 -0.211328 0
0.0282044 -0.245147 0
-0.00272838 -0.274878 0
-0.0219481 -0.285046 0
-0.0210303 -0.260174 0
-0.0102795 -0.173935 0
0 0 0
0 0 0
-0.0102641 0.168518 0
-0.00665307 0.23458 0
0.0120297 0.239266 0
0.0469805 0.223655 0
0.0900876 0.197487 0
0.133239 0.1705 0
0.174724 0.144303 0
0.212831 0.120506 0
0.246799 0.0991268 0
0.275868 0.0801847 0
0.300054 0.0632591 0
0.319376 0.0479292 0
0.333918 0.0337854 0
0.343766 0.0204176 0
0.348922 0.00742217 0
0.349391 -0.00560498 0
0.345027 -0.0191039 0
0.335685 -0.0335147 0
0.32107 -0.0493594 0
0.30089 -0.0671602 0
0.274817 -0.0875968 0
0.242526 -0.111349 0
0.204426 -0.138691 0
0.160926 -0.169895 0
0.113601 -0.203605 0
0.0640232 -0.238467 0
0.0220431 -0.262221 0
-0.00249016 -0.262611 0
-0.00977258 -0.191312 0
0 0 0
0 0 0
0.0118611 0.164923 0
0.0464282 0.213171 0
0.0959811 0.198575 0
0.1528 0.174964 0
0.210767 0.148032 0
0.263766 0.12347 0
0.31122 0.10163 0
0.352553 0.0828607 0
0.387842 0.0668374 0
0.417165 0.0532333 0
0.440952 0.04151 0
0.459633 0.0311292 0
0.473493 0.0217461 0
0.482817 0.0130161 0
0.487691 0.0046218 0
0.488202 -0.00375429 0
0.484202 -0.0124549 0
0.475543 -0.0218226 0
0.461817 -0.0322541 0
0.442619 -0.0441458 0
0.41724 -0.0582507 0
0.384972 -0.0753218 0
0.345327 -0.0958917 0
0.297815 -0.120493 0
0.242354 -0.14939 0
0.178859 -0.182849 0
0.114462 -0.213731 0
0.0562921 -0.234903 0
0.0146909 -0.184335 0
0 0 0
2.77334e-30 0 0
0.0823949 0.11397 0
0.170368 0.142335 0
0.255772 0.126187 0
0.330462 0.106616 0
0.394802 0.0869399 0
0.449152 0.0704772 0
0.494569 0.0567577 0
0.532104 0.0453114 0
0.56276 0.0358708 0
0.587537 0.0281683 0
0.607138 0.0217456 0
0.622268 0.0161446 0
0.633306 0.0111623 0
0.640632 0.00659575 0
0.644377 0.00225031 0
0.644673 -0.00206861 0
0.641391 -0.00656998 0
0.634398 -0.0114627 0
0.623284 -0.016964 0
0.607635 -0.0232907 0
0.586597 -0.0310228 0
0.559316 -0.0407397 0
0.524452 -0.0528341 0
0.480665 -0.0676984 0
0.426228 -0.0862499 0
0.359412 -0.109406 0
0.2793 -0.133538 0
0.184975 -0.155017 0
0.0880161 -0.126339 0
2.77334e-30 0 0
0.25 0 0
0.359165 0.0481616 0
0.45746 0.0589767 0
0.540685 0.0505216 0
0.604639 0.0408728 0
0.653957 0.0317495 0
0.693273 0.0248706 0
0.724314 0.0195828 0
0.748811 0.0152328 0
0.767997 0.0117504 0
0.783107 0.00906523 0
0.794769 0.00692318 0
0.803613 0.00507006 0
0.809945 0.0034437 0
0.814072 0.00198191 0
0.816105 0.000609208 0
0.816156 -0.000749879 0
0.81414 -0.00217608 0
0.809975 -0.00375013 0
0.803376 -0.00553167 0
0.794056 -0.00758035 0
0.78136 -0.0101826 0
0.764633 -0.013625 0
0.742457 -0.018032 0
0.713414 -0.0235283 0
0.675389 -0.030886 0
0.626264 -0.0408772 0
0.559998 -0.0521307 0
0.470548 -0.0632756 0
0.36489 -0.0530019 0
0.25 0 0
1 0 0
1 0 0
1 0 0
1 0 0
1 0 0
1 0 0
1 0 0
1 0 0
1 0 0
1 0 0
1 0 0
1 0 0
1 0 0
1 0 0
1 0 0
1 0 0
1 0 0
1 0 0
1 0 0
1 0 0
1 0 0
1 0 0
1 0 0
1 0 0
1 0 0
1 0 0
1 0 0
1 0 0
1 0 0
1 0 0
1 0 0
      </DataArray> 
      <DataArray type="Float64" NumberOfComponents="3" Name="Real Velocity" format="ascii">
0 0 0
0 0 0
0 0 0
0 0 0
0 0 0
0 0 0
0 0 0
0 0 0
0 0 0