<?xml version="1.0"?>
<VTKFile type="UnstructuredGrid">
  <UnstructuredGrid>
  <Piece NumberOfPoints="961"  NumberOfCells="225">
    <Points>
      <DataArray type="Float64" NumberOfComponents="3" format="ascii">
0 0 0
0.0333333 0 0
0.0666667 0 0
0.1 0 0
0.133333 0 0
0.166667 0 0
0.2 0 0
0.233333 0 0
0.266667 0 0
0.3 0 0
0.333333 0 0
0.366667 0 0
0.4 0 0
0.433333 0 0
0.466667 0 0
0.5 0 0
0.533333 0 0
0.566667 0 0
0.6 0 0
0.633333 0 0
0.666667 0 0
0.7 0 0
0.733333 0 0
0.766667 0 0
0.8 0 0
0.833333 0 0
0.866667 0 0
0.9 0 0
0.933333 0 0
0.966667 0 0
1 0 0
0 0.0333333 0
0.0333333 0.0333333 0
0.0666667 0.0333333 0
0.1 0.0333333 0
0.133333 0.0333333 0
0.166667 0.0333333 0
0.2 0.0333333 0
0.233333 0.0333333 0
0.266667 0.0333333 0
0.3 0.0333333 0
0.333333 0.0333333 0
0.366667 0.0333333 0
0.4 0.0333333 0
0.433333 0.0333333 0
0.466667 0.0333333 0
0.5 0.0333333 0
0.533333 0.0333333 0
0.566667 0.0333333 0
0.6 0.0333333 0
0.633333 0.0333333 0
0.666667 0.0333333 0
0.7 0.0333333 0
0.733333 0.0333333 0
0.766667 0.0333333 0
0.8 0.0333333 0
0.833333 0.0333333 0
0.866667 0.0333333 0
0.9 0.0333333 0
0.933333 0.0333333 0
0.966667 0.0333333 0
1 0.0333333 0
0 0.0666667 0
0.0333333 0.0666667 0
0.0666667 0.0666667 0
0.1 0.0666667 0
0.133333 0.0666667 0
0.166667 0.0666667 0
0.2 0.0666667 0
0.233333 0.0666667 0
0.266667 0.0666667 0
0.3 0.0666667 0
0.333333 0.0666667 0
0.366667 0.0666667 0
0.4 0.0666667 0
0.433333 0.0666667 0
0.466667 0.0666667 0
0.5 0.0666667 0
0.533333 0.0666667 0
0.566667 0.0666667 0
0.6 0.0666667 0
0.633333 0.0666667 0
0.666667 0.0666667 0
0.7 0.0666667 0
0.733333 0.0666667 0
0.766667 0.0666667 0
0.8 0.0666667 0
0.833333 0.0666667 0
0.866667 0.0666667 0
0.9 0.0666667 0
0.933333 0.0666667 0
0.966667 0.0666667 0
1 0.0666667 0
0 0.1 0
0.0333333 0.1 0
0.0666667 0.1 0
0.1 0.1 0
0.133333 0.1 0
0.166667 0.1 0
0.2 0.1 0
0.233333 0.1 0
0.266667 0.1 0
0.3 0.1 0
0.333333 0.1 0
0.366667 0.1 0
0.4 0.1 0
0.433333 0.1 0
0.466667 0.1 0
0.5 0.1 0
0.533333 0.1 0
0.566667 0.1 0
0.6 0.1 0
0.633333 0.1 0
0.666667 0.1 0
0.7 0.1 0
0.733333 0.1 0
0.766667 0.1 0
0.8 0.1 0
0.833333 0.1 0
0.866667 0.1 0
0.9 0.1 0
0.933333 0.1 0
0.966667 0.1 0
1 0.1 0
0 0.133333 0
0.0333333 0.133333 0
0.0666667 0.133333 0
0.1 0.133333 0
0.133333 0.133333 0
0.166667 0.133333 0
0.2 0.133333 0
0.233333 0.133333 0
0.266667 0.133333 0
0.3 0.133333 0
0.333333 0.133333 0
0.366667 0.133333 0
0.4 0.133333 0
0.433333 0.133333 0
0.466667 0.133333 0
0.5 0.133333 0
0.533333 0.133333 0
0.566667 0.133333 0
0.6 0.133333 0
0.633333 0.133333 0
0.666667 0.133333 0
0.7 0.133333 0
0.733333 0.133333 0
0.766667 0.133333 0
0.8 0.133333 0
0.833333 0.133333 0
0.866667 0.133333 0
0.9 0.133333 0
0.933333 0.133333 0
0.966667 0.133333 0
1 0.133333 0
0 0.166667 0
0.0333333 0.166667 0
0.0666667 0.166667 0
0.1 0.166667 0
0.133333 0.166667 0
0.166667 0.166667 0
0.2 0.166667 0
0.233333 0.166667 0
0.266667 0.166667 0
0.3 0.166667 0
0.333333 0.166667 0
0.366667 0.166667 0
0.4 0.166667 0
0.433333 0.166667 0
0.466667 0.166667 0
0.5 0.166667 0
0.533333 0.166667 0
0.566667 0.166667 0
0.6 0.166667 0
0.633333 0.166667 0
0.666667 0.166667 0
0.7 0.166667 0
0.733333 0.166667 0
0.766667 0.166667 0
0.8 0.166667 0
0.833333 0.166667 0
0.866667 0.166667 0
0.9 0.166667 0
0.933333 0.166667 0
0.966667 0.166667 0
1 0.166667 0
0 0.2 0
0.0333333 0.2 0
0.0666667 0.2 0
0.1 0.2 0
0.133333 0.2 0
0.166667 0.2 0
0.2 0.2 0
0.233333 0.2 0
0.266667 0.2 0
0.3 0.2 0
0.333333 0.2 0
0.366667 0.2 0
0.4 0.2 0
0.433333 0.2 0
0.466667 0.2 0
0.5 0.2 0
0.533333 0.2 0
0.566667 0.2 0
0.6 0.2 0
0.633333 0.2 0
0.666667 0.2 0
0.7 0.2 0
0.733333 0.2 0
0.766667 0.2 0
0.8 0.2 0
0.833333 0.2 0
0.866667 0.2 0
0.9 0.2 0
0.933333 0.2 0
0.966667 0.2 0
1 0.2 0
0 0.233333 0
0.0333333 0.233333 0
0.0666667 0.233333 0
0.1 0.233333 0
0.133333 0.233333 0
0.166667 0.233333 0
0.2 0.233333 0
0.233333 0.233333 0
0.266667 0.233333 0
0.3 0.233333 0
0.333333 0.233333 0
0.366667 0.233333 0
0.4 0.233333 0
0.433333 0.233333 0
0.466667 0.233333 0
0.5 0.233333 0
0.533333 0.233333 0
0.566667 0.233333 0
0.6 0.233333 0
0.633333 0.233333 0
0.666667 0.233333 0
0.7 0.233333 0
0.733333 0.233333 0
0.766667 0.233333 0
0.8 0.233333 0
0.833333 0.233333 0
0.866667 0.233333 0
0.9 0.233333 0
0.933333 0.233333 0
0.966667 0.233333 0
1 0.233333 0
0 0.266667 0
0.0333333 0.266667 0
0.0666667 0.266667 0
0.1 0.266667 0
0.133333 0.266667 0
0.166667 0.266667 0
0.2 0.266667 0
0.233333 0.266667 0
0.266667 0.266667 0
0.3 0.266667 0
0.333333 0.266667 0
0.366667 0.266667 0
0.4 0.266667 0
0.433333 0.266667 0
0.466667 0.266667 0
0.5 0.266667 0
0.533333 0.266667 0
0.566667 0.266667 0
0.6 0.266667 0
0.633333 0.266667 0
0.666667 0.266667 0
0.7 0.266667 0
0.733333 0.266667 0
0.766667 0.266667 0
0.8 0.266667 0
0.833333 0.266667 0
0.866667 0.266667 0
0.9 0.266667 0
0.933333 0.266667 0
0.966667 0.266667 0
1 0.266667 0
0 0.3 0
0.0333333 0.3 0
0.0666667 0.3 0
0.1 0.3 0
0.133333 0.3 0
0.166667 0.3 0
0.2 0.3 0
0.233333 0.3 0
0.266667 0.3 0
0.3 0.3 0
0.333333 0.3 0
0.366667 0.3 0
0.4 0.3 0
0.433333 0.3 0
0.466667 0.3 0
0.5 0.3 0
0.533333 0.3 0
0.566667 0.3 0
0.6 0.3 0
0.633333 0.3 0
0.666667 0.3 0
0.7 0.3 0
0.733333 0.3 0
0.766667 0.3 0
0.8 0.3 0
0.833333 0.3 0
0.866667 0.3 0
0.9 0.3 0
0.933333 0.3 0
0.966667 0.3 0
1 0.3 0
0 0.333333 0
0.0333333 0.333333 0
0.0666667 0.333333 0
0.1 0.333333 0
0.133333 0.333333 0
0.166667 0.333333 0
0.2 0.333333 0
0.233333 0.333333 0
0.266667 0.333333 0
0.3 0.333333 0
0.333333 0.333333 0
0.366667 0.333333 0
0.4 0.333333 0
0.433333 0.333333 0
0.466667 0.333333 0
0.5 0.333333 0
0.533333 0.333333 0
0.566667 0.333333 0
0.6 0.333333 0
0.633333 0.333333 0
0.666667 0.333333 0
0.7 0.333333 0
0.733333 0.333333 0
0.766667 0.333333 0
0.8 0.333333 0
0.833333 0.333333 0
0.866667 0.333333 0
0.9 0.333333 0
0.933333 0.333333 0
0.966667 0.333333 0
1 0.333333 0
0 0.366667 0
0.0333333 0.366667 0
0.0666667 0.366667 0
0.1 0.366667 0
0.133333 0.366667 0
0.166667 0.366667 0
0.2 0.366667 0
0.233333 0.366667 0
0.266667 0.366667 0
0.3 0.366667 0
0.333333 0.366667 0
0.366667 0.366667 0
0.4 0.366667 0
0.433333 0.366667 0
0.466667 0.366667 0
0.5 0.366667 0
0.533333 0.366667 0
0.566667 0.366667 0
0.6 0.366667 0
0.633333 0.366667 0
0.666667 0.366667 0
0.7 0.366667 0
0.733333 0.366667 0
0.766667 0.366667 0
0.8 0.366667 0
0.833333 0.366667 0
0.866667 0.366667 0
0.9 0.366667 0
0.933333 0.366667 0
0.966667 0.366667 0
1 0.366667 0
0 0.4 0
0.0333333 0.4 0
0.0666667 0.4 0
0.1 0.4 0
0.133333 0.4 0
0.166667 0.4 0
0.2 0.4 0
0.233333 0.4 0
0.266667 0.4 0
0.3 0.4 0
0.333333 0.4 0
0.366667 0.4 0
0.4 0.4 0
0.433333 0.4 0
0.466667 0.4 0
0.5 0.4 0
0.533333 0.4 0
0.566667 0.4 0
0.6 0.4 0
0.633333 0.4 0
0.666667 0.4 0
0.7 0.4 0
0.733333 0.4 0
0.766667 0.4 0
0.8 0.4 0
0.833333 0.4 0
0.866667 0.4 0
0.9 0.4 0
0.933333 0.4 0
0.966667 0.4 0
1 0.4 0
0 0.433333 0
0.0333333 0.433333 0
0.0666667 0.433333 0
0.1 0.433333 0
0.133333 0.433333 0
0.166667 0.433333 0
0.2 0.433333 0
0.233333 0.433333 0
0.266667 0.433333 0
0.3 0.433333 0
0.333333 0.433333 0
0.366667 0.433333 0
0.4 0.433333 0
0.433333 0.433333 0
0.466667 0.433333 0
0.5 0.433333 0
0.533333 0.433333 0
0.566667 0.433333 0
0.6 0.433333 0
0.633333 0.433333 0
0.666667 0.433333 0
0.7 0.433333 0
0.733333 0.433333 0
0.766667 0.433333 0
0.8 0.433333 0
0.833333 0.433333 0
0.866667 0.433333 0
0.9 0.433333 0
0.933333 0.433333 0
0.966667 0.433333 0
1 0.433333 0
0 0.466667 0
0.0333333 0.466667 0
0.0666667 0.466667 0
0.1 0.466667 0
0.133333 0.466667 0
0.166667 0.466667 0
0.2 0.466667 0
0.233333 0.466667 0
0.266667 0.466667 0
0.3 0.466667 0
0.333333 0.466667 0
0.366667 0.466667 0
0.4 0.466667 0
0.433333 0.466667 0
0.466667 0.466667 0
0.5 0.466667 0
0.533333 0.466667 0
0.566667 0.466667 0
0.6 0.466667 0
0.633333 0.466667 0
0.666667 0.466667 0
0.7 0.466667 0
0.733333 0.466667 0
0.766667 0.466667 0
0.8 0.466667 0
0.833333 0.466667 0
0.866667 0.466667 0
0.9 0.466667 0
0.933333 0.466667 0
0.966667 0.466667 0
1 0.466667 0
0 0.5 0
0.0333333 0.5 0
0.0666667 0.5 0
0.1 0.5 0
0.133333 0.5 0
0.166667 0.5 0
0.2 0.5 0
0.233333 0.5 0
0.266667 0.5 0
0.3 0.5 0
0.333333 0.5 0
0.366667 0.5 0
0.4 0.5 0
0.433333 0.5 0
0.466667 0.5 0
0.5 0.5 0
0.533333 0.5 0
0.566667 0.5 0
0.6 0.5 0
0.633333 0.5 0
0.666667 0.5 0
0.7 0.5 0
0.733333 0.5 0
0.766667 0.5 0
0.8 0.5 0
0.833333 0.5 0
0.866667 0.5 0
0.9 0.5 0
0.933333 0.5 0
0.966667 0.5 0
1 0.5 0
0 0.533333 0
0.0333333 0.533333 0
0.0666667 0.533333 0
0.1 0.533333 0
0.133333 0.533333 0
0.166667 0.533333 0
0.2 0.533333 0
0.233333 0.533333 0
0.266667 0.533333 0
0.3 0.533333 0
0.333333 0.533333 0
0.366667 0.533333 0
0.4 0.533333 0
0.433333 0.533333 0
0.466667 0.533333 0
0.5 0.533333 0
0.533333 0.533333 0
0.566667 0.533333 0
0.6 0.533333 0
0.633333 0.533333 0
0.666667 0.533333 0
0.7 0.533333 0
0.733333 0.533333 0
0.766667 0.533333 0
0.8 0.533333 0
0.833333 0.533333 0
0.866667 0.533333 0
0.9 0.533333 0
0.933333 0.533333 0
0.966667 0.533333 0
1 0.533333 0
0 0.566667 0
0.0333333 0.566667 0
0.0666667 0.566667 0
0.1 0.566667 0
0.133333 0.566667 0
0.166667 0.566667 0
0.2 0.566667 0
0.233333 0.566667 0
0.266667 0.566667 0
0.3 0.566667 0
0.333333 0.566667 0
0.366667 0.566667 0
0.4 0.566667 0
0.433333 0.566667 0
0.466667 0.566667 0
0.5 0.566667 0
0.533333 0.566667 0
0.566667 0.566667 0
0.6 0.566667 0
0.633333 0.566667 0
0.666667 0.566667 0
0.7 0.566667 0
0.733333 0.566667 0
0.766667 0.566667 0
0.8 0.566667 0
0.833333 0.566667 0
0.866667 0.566667 0
0.9 0.566667 0
0.933333 0.566667 0
0.966667 0.566667 0
1 0.566667 0
0 0.6 0
0.0333333 0.6 0
0.0666667 0.6 0
0.1 0.6 0
0.133333 0.6 0
0.166667 0.6 0
0.2 0.6 0
0.233333 0.6 0
0.266667 0.6 0
0.3 0.6 0
0.333333 0.6 0
0.366667 0.6 0
0.4 0.6 0
0.433333 0.6 0
0.466667 0.6 0
0.5 0.6 0
0.533333 0.6 0
0.566667 0.6 0
0.6 0.6 0
0.633333 0.6 0
0.666667 0.6 0
0.7 0.6 0
0.733333 0.6 0
0.766667 0.6 0
0.8 0.6 0
0.833333 0.6 0
0.866667 0.6 0
0.9 0.6 0
0.933333 0.6 0
0.966667 0.6 0
1 0.6 0
0 0.633333 0
0.0333333 0.633333 0
0.0666667 0.633333 0
0.1 0.633333 0
0.133333 0.633333 0
0.166667 0.633333 0
0.2 0.633333 0
0.233333 0.633333 0
0.266667 0.633333 0
[...]
    <PointData>
      <DataArray type="Float64" NumberOfComponents="3" Name="Velocity" format="ascii">
0 0 0
0 0 0
0 0 0
0 0 0
0 0 0
0 0 0
0 0 0
0 0 0
0 0 0
0 0 0
0 0 0
0 0 0
0 0 0
0 0 0
0 0 0
0 0 0
0 0 0
0 0 0
0 0 0
0 0 0
0 0 0
0 0 0
0 0 0
0 0 0
0 0 0
0 0 0
0 0 0
0 0 0
0 0 0
0 0 0
0 0 0
0 0 0
0.00478138 -0.00738666 0
0.00271676 -0.00354717 0
-0.00439164 0.00338137 0
-0.0147416 0.00526186 0
-0.026983 0.00499064 0
-0.039766 0.00546404 0
-0.0519401 0.00578121 0
-0.0623547 0.00504133 0
-0.0712741 0.00401804 0
-0.0789624 0.00348497 0
-0.0854406 0.00313594 0
-0.0907296 0.00266477 0
-0.0949474 0.00217875 0
-0.0982119 0.00178521 0
-0.100497 0.00141191 0
-0.101776 0.000986629 0
-0.101945 0.000452286 0
-0.100897 -0.0002482 0
-0.0983776 -0.00106976 0
-0.0941282 -0.00196733 0
-0.0878557 -0.00316834 0
-0.0792666 -0.00490025 0
-0.0681612 -0.00644812 0
-0.0543399 -0.00709701 0
-0.0389388 -0.0073601 0
-0.0230942 -0.00775058 0
-0.00923067 -0.00566973 0
0.000227419 0.00148114 0
0.00379824 0.00595379 0
0 0 0
0 0 0
-0.00330749 -9.88403e-05 0
-0.0105954 0.00988616 0
-0.0245734 0.0219086 0
-0.0479514 0.0279219 0
-0.0752044 0.0295506 0
-0.100807 0.0284189 0
-0.124251 0.0256393 0
-0.145024 0.0223242 0
-0.163017 0.0189278 0
-0.178117 0.0159045 0
-0.190574 0.0131613 0
-0.200637 0.0106053 0
-0.208452 0.00818859 0
-0.214164 0.00586311 0
-0.217739 0.00352446 0
-0.219147 0.00106824 0
-0.218249 -0.00163699 0
-0.214907 -0.00472264 0
-0.208758 -0.00828628 0
-0.199439 -0.0124254 0
-0.186446 -0.0172102 0
-0.169272 -0.0227105 0
-0.147886 -0.0282013 0
-0.122259 -0.0329573 0
-0.0933564 -0.0355545 0
-0.062145 -0.034569 0
-0.0343637 -0.0280613 0
-0.0157514 -0.0140922 0
-0.00479963 -0.00171916 0
0 0 0
0 0 0
-0.0121601 0.00771235 0
-0.0281934 0.0269049 0
-0.051955 0.0472312 0
-0.0873001 0.0583447 0
-0.126562 0.0615807 0
-0.162073 0.0582744 0
-0.194031 0.0516738 0
-0.222633 0.045027 0
-0.24745 0.03848 0
-0.268054 0.0321792 0
-0.284876 0.0262843 0
-0.298347 0.020955 0
-0.308575 0.0159547 0
-0.315671 0.0110468 0
-0.319634 0.00609195 0
-0.320466 0.000950686 0
-0.318018 -0.00458677 0
-0.312143 -0.0107302 0
-0.30252 -0.0177525 0
-0.288828 -0.0259267 0
-0.270462 -0.0351537 0
-0.246813 -0.0453344 0
-0.218012 -0.0557281 0
-0.184187 -0.0655941 0
-0.145778 -0.0714021 0
-0.103227 -0.0696218 0
-0.0637478 -0.0581873 0
-0.0345573 -0.0350326 0
-0.0138949 -0.0117671 0
0 0 0
0 0 0
-0.00966988 0.0018958 0
-0.0383343 0.0341141 0
-0.0779461 0.070999 0
-0.120458 0.0868948 0
-0.162953 0.0889818 0
-0.202512 0.0844402 0
-0.238381 0.0759843 0
-0.269803 0.0663282 0
-0.296794 0.0564255 0
-0.319364 0.0472298 0
-0.337824 0.0387131 0
-0.352482 0.0308469 0
-0.363378 0.0234021 0
-0.37055 0.0161494 0
-0.374089 0.00886866 0
-0.374085 0.00133982 0
-0.370355 -0.00671601 0
-0.362719 -0.0155777 0
-0.351042 -0.0255715 0
-0.33519 -0.0370236 0
-0.314595 -0.0500271 0
-0.288689 -0.0646753 0
-0.257375 -0.0794969 0
-0.220553 -0.0930206 0
-0.17873 -0.101722 0
-0.132413 -0.102076 0
-0.0857314 -0.0870603 0
-0.0428114 -0.049653 0
-0.011589 -0.0129382 0
0 0 0
0 0 0
-0.0104034 0.0159237 0
-0.0477442 0.0621973 0
-0.0964095 0.108802 0
-0.140786 0.125721 0
-0.181972 0.124698 0
-0.221064 0.117478 0
-0.256634 0.106023 0
-0.28725 0.0922948 0
-0.313344 0.0781149 0
-0.335346 0.0653061 0
-0.353355 0.0534603 0
-0.367472 0.0421694 0
-0.377675 0.0313283 0
-0.383942 0.0208323 0
-0.386417 0.0103696 0
-0.385245 -0.000371055 0
-0.380283 -0.0117377 0
-0.37139 -0.0240783 0
-0.358629 -0.0376619 0
-0.342064 -0.0527573 0
-0.321365 -0.0698179 0
-0.296202 -0.089297 0
-0.266219 -0.109021 0
-0.231059 -0.126816 0
-0.191182 -0.139482 0
-0.147045 -0.14382 0
-0.0996192 -0.128397 0
-0.0498738 -0.0817804 0
-0.0119529 -0.0302282 0
0 0 0
0 0 0
-0.028927 0.0832684 0
-0.0631494 0.141838 0
-0.101208 0.176232 0
-0.141643 0.186971 0
-0.181211 0.181672 0
-0.216667 0.16795 0
-0.248123 0.149244 0
-0.275687 0.128994 0
-0.299399 0.108899 0
-0.319297 0.0906578 0
-0.335404 0.0735387 0
-0.347743 0.0568105 0
-0.356282 0.0405307 0
-0.360986 0.0247568 0
-0.36193 0.00910992 0
-0.359186 -0.00678866 0
-0.352822 -0.023365 0
-0.342908 -0.0410451 0
-0.329584 -0.059942 0
-0.312992 -0.0801691 0
-0.293295 -0.102514 0
-0.270652 -0.127763 0
-0.244784 -0.153813 0
-0.215408 -0.178559 0
-0.182107 -0.197652 0
-0.144463 -0.206746 0
-0.104715 -0.195916 0
-0.0651051 -0.155242 0
-0.0290579 -0.0886329 0
0 0 0
0 0 0
-0.048545 0.0941309 0
-0.0726524 0.155283 0
-0.0906732 0.18881 0
-0.120959 0.200064 0
-0.154284 0.195185 0
-0.181423 0.180316 0
-0.204794 0.159887 0
-0.226812 0.138331 0
-0.246432 0.117056 0
-0.262608 0.0974682 0
-0.275442 0.0788747 0
-0.285034 0.0605812 0
-0.291287 0.0426856 0
-0.2941 0.0252855 0
-0.29347 0.00806671 0
-0.289396 -0.00928496 0
-0.282133 -0.0271881 0
-0.271938 -0.0460614 0
-0.259091 -0.0659135 0
-0.243874 -0.0867532 0
-0.226718 -0.109442 0
-0.208056 -0.13484 0
-0.188564 -0.161241 0
-0.168918 -0.18694 0
-0.146741 -0.207309 0
-0.119655 -0.217721 0
-0.0934064 -0.207881 0
-0.073741 -0.167491 0
-0.0471188 -0.097786 0
0 0 0
0 0 0
-0.0525614 -0.0612874 0
-0.0643557 -0.0152218 0
-0.063138 0.0620585 0
-0.0766638 0.0944151 0
-0.0948053 0.100518 0
-0.107435 0.0990373 0
-0.118594 0.0921945 0
-0.132324 0.0822114 0
-0.145918 0.070862 0
-0.156671 0.0599205 0
-0.16494 0.0493947 0
-0.171084 0.0392925 0
-0.174778 0.0294695 0
-0.175698 0.0197811 0
-0.173881 0.0102172 0
-0.169364 0.000768105 0
-0.162377 -0.0087975 0
-0.153146 -0.0187108 0
-0.142335 -0.0290776 0
-0.130607 -0.0400038 0
-0.117969 -0.0519289 0
-0.104428 -0.0652923 0
-0.0930529 -0.0786727 0
-0.0869099 -0.0906491 0
-0.0803222 -0.0995283 0
-0.0676125 -0.103617 0
-0.0580784 -0.0825551 0
-0.0610172 -0.0159815 0
-0.0503506 0.0326786 0
0 0 0
0 0 0
-0.0395297 -0.22248 0
-0.0429743 -0.196207 0
-0.0336097 -0.0790216 0
-0.0347118 -0.0287614 0
-0.0393423 -0.0133211 0
-0.0405633 -0.00059544 0
-0.0424387 0.00816456 0
-0.0490322 0.0117077 0
-0.0570092 0.0121961 0
-0.0630348 0.0117919 0
-0.0675142 0.0112308 0
-0.0708527 0.0112486 0
-0.0726149 0.0114289 0
-0.0723654 0.0113552 0
-0.0701944 0.0113374 0
-0.0661917 0.0116853 0
-0.0604842 0.0123207 0
-0.0531987 0.0131651 0
-0.0452237 0.0140763 0
-0.0374477 0.0149118 0
-0.0294837 0.0155418 0
-0.0209445 0.0158367 0
-0.0161679 0.0174118 0
-0.0194913 0.0218825 0
-0.0241647 0.0263098 0
-0.0234382 0.027755 0
-0.0254929 0.0577212 0
-0.0385101 0.147712 0
-0.0381317 0.170785 0
0 0 0
0 0 0
-0.00800302 -0.228939 0
-0.0132233 -0.214204 0
-0.0170959 -0.10943 0
-0.0210558 -0.068253 0
-0.0244614 -0.0573239 0
-0.026671 -0.0432925 0
-0.029246 -0.0302049 0
-0.0337475 -0.0221072 0
-0.0388555 -0.0170641 0
-0.0432498 -0.0131406 0
-0.0467818 -0.00948507 0
-0.0493031 -0.0052463 0
-0.0506567 -0.000889544 0
-0.0506857 0.00311987 0
-0.0494422 0.00720317 0
-0.046978 0.0117815 0
-0.0433868 0.0166803 0
-0.0387619 0.0217247 0
-0.033663 0.0270587 0
-0.0286496 0.0328261 0
-0.0236964 0.0384879 0
-0.0187778 0.0435049 0
-0.0158253 0.0505321 0
-0.01677 0.0622246 0
-0.019583 0.0708272 0
-0.0222355 0.0685843 0
-0.0224116 0.0906088 0
-0.0177956 0.172013 0
-0.00984069 0.184558 0
0 0 0
0 0 0
0.0160087 -0.143626 0
0.00646693 -0.133827 0
-0.0115873 -0.0689955 0
-0.0211161 -0.0475246 0
-0.0269599 -0.0449184 0
-0.0339595 -0.0366814 0
-0.040583 -0.027282 0
-0.0452984 -0.0211888 0
-0.0491821 -0.0171788 0
-0.0533099 -0.0140287 0
-0.0569982 -0.0110996 0
-0.0595631 -0.00775286 0
-0.0611576 -0.00433067 0
-0.0619349 -0.00117534 0
-0.061881 0.00207494 0
-0.060982 0.00578201 0
-0.0593128 0.00966808 0
-0.0569483 0.0134554 0
-0.0539997 0.0175751 0
-0.0505777 0.0224584 0
-0.0471518 0.0271624 0
-0.0441912 0.030744 0
-0.0407216 0.0363798 0
-0.0357688 0.047246 0
-0.0323338 0.053866 0
-0.0334179 0.0467634 0
-0.0279284 0.0554546 0
-0.00477291 0.109456 0
0.0124146 0.120421 0
0 0 0
0 0 0
0.00649559 -0.0294995 0
-0.00233411 -0.0196923 0
-0.0150749 0.00245077 0
-0.0203127 0.00995897 0
-0.0236353 0.0104672 0
-0.0306304 0.0116104 0
-0.038017 0.0125649 0
-0.0425137 0.012507 0
-0.0457135 0.0115921 0
-0.0492091 0.00997576 0
-0.0524188 0.00804032 0
-0.0547606 0.00616826 0
-0.0563716 0.00426085 0
-0.0573889 0.00221933 0
-0.0577674 0.000213207 0
-0.0574621 -0.001588 0
-0.0564906 -0.00332921 0
-0.0548705 -0.00515537 0
-0.0525798 -0.00666893 0
-0.0495967 -0.00747233 0
-0.0463947 -0.00818191 0
-0.0434473 -0.00941402 0
-0.0395531 -0.00935342 0
-0.0335104 -0.00618487 0
-0.0281741 -0.00473116 0
-0.026399 -0.00981509 0
-0.0211371 -0.00839472 0
-0.00534087 0.0125719 0
0.0065261 0.0247988 0
0 0 0
0 0 0
-0.0115845 0.051763 0
-0.0175093 0.0633225 0
-0.0196163 0.0579047 0
-0.0197472 0.0587358 0
-0.021029 0.0601874 0
-0.0265881 0.0566309 0
-0.0332182 0.0508002 0
-0.0377127 0.0454291 0
-0.0410438 0.0399874 0
-0.0441835 0.0339451 0
-0.0469446 0.0274689 0
-0.0491401 0.0207256 0
-0.0507674 0.013838 0
-0.0518237 0.00692904 0
-0.0522686 -1.60423e-05 0
-0.0520612 -0.00701212 0
-0.0511601 -0.0140213 0
-0.0495241 -0.0210055 0
-0.0471419 -0.0277399 0
-0.0440023 -0.0339992 0
-0.0403563 -0.0398499 0
-0.036455 -0.0453586 0
-0.0319889 -0.0503136 0
-0.0266485 -0.0545034 0
-0.0211301 -0.0572393 0
-0.0161296 -0.0578328 0
-0.012464 -0.0581156 0
-0.0109499 -0.0599192 0
-0.00799326 -0.0462214 0
0 0 0
0 0 0
-0.0132738 0.0384851 0
-0.0169416 0.0503407 0
-0.0172688 0.050362 0
-0.0205211 0.0533442 0
-0.0256825 0.0555965 0
-0.0317369 0.0534282 0
-0.0378568 0.0488883 0
-0.0432149 0.044026 0
-0.047767 0.0387456 0
-0.0514688 0.0329518 0
-0.0544765 0.0267205 0
-0.0569459 0.0201276 0
-0.0588134 0.0133536 0
-0.0600156 0.00657895 0
-0.060552 -0.000246805 0
-0.0604221 -0.00717401 0
-0.0595613 -0.0141178 0
-0.0579052 -0.0209932 0
-0.0554245 -0.0277043 0
-0.0520902 -0.0341553 0
-0.0479678 -0.0401467 0
-0.0431228 -0.0454789 0
-0.0376981 -0.0501467 0
-0.0318367 -0.054145 0
-0.0252278 -0.0559334 0
-0.0175607 -0.0539717 0
-0.012335 -0.0508845 0
-0.0130503 -0.0492967 0
-0.0116307 -0.0365534 0
0 0 0
0 0 0
-0.00787218 -0.000466894 0
-0.0113268 0.0119851 0
-0.015026 0.0271432 0
-0.0236317 0.0347947 0
-0.0334783 0.0375731 0
-0.0409 0.038112 0
-0.0471629 0.0367577 0
-0.0535331 0.0338566 0
-0.0593049 0.0299308 0
-0.0637723 0.0255027 0
-0.0672541 0.0206817 0
-0.0700692 0.0155774 0
-0.0721693 0.0103247 0
-0.0735065 0.00505864 0
-0.074117 -0.00024386 0
-0.074037 -0.00560582 0
-0.0732022 -0.0109721 0
-0.0715484 -0.0162874 0
-0.0690104 -0.0215333 0
-0.0655234 -0.0266912 0
-0.0610337 -0.0314747 0
-0.0554879 -0.0355969 0
-0.0491125 -0.0386884 0
-0.0421339 -0.0403793 0
-0.0341281 -0.0400565 0
-0.024671 -0.037107 0
-0.0167215 -0.0297919 0
-0.0132383 -0.0163726 0
-0.00930363 -0.00404379 0
0 0 0
0 0 0
-0.00467925 0.00377343 0
-0.0113609 0.0188784 0
-0.0198812 0.0355686 0
-0.0300764 0.0440979 0
-0.0402988 0.0469959 0
-0.0489008 0.0467922 0
-0.0563665 0.0443369 0
-0.0631804 0.0404797 0
-0.0690795 0.035607 0
-0.073801 0.0301047 0
-0.0775174 0.0242396 0
-0.0804013 0.018278 0
-0.0824944 0.0122681 0
-0.0838383 0.0062577 0
-0.0844629 0.000228012 0
-0.0843981 -0.00583974 0
-0.0835909 -0.0119375 0
-0.0819885 -0.0180573 0
-0.0794825 -0.0241978 0
-0.0759644 -0.0303574 0
-0.0713581 -0.0362364 0
-0.0655874 -0.0415349 0
-0.0586638 -0.0457742 0
-0.050599 -0.0484759 0
-0.0414914 -0.0488519 0
-0.0314392 -0.0461141 0
-0.0215946 -0.037928 0
-0.0131097 -0.0219588 0
-0.00592974 -0.0065388 0
0 0 0
0 0 0
-0.0037851 0.0237857 0
-0.013905 0.0426564 0
-0.0262801 0.0561705 0
-0.0368309 0.0638861 0
-0.0464435 0.0663521 0
-0.0560037 0.0641172 0
-0.0646972 0.0590603 0
-0.0717101 0.0530604 0
-0.0773822 0.0462605 0
-0.0820534 0.0388039 0
-0.0857577 0.0310667 0
-0.088529 0.0234255 0
-0.0904892 0.0158557 0
-0.0917607 0.00833278 0
-0.0923653 0.000816418 0
-0.0923252 -0.00673373 0
-0.0915925 -0.0143615 0
-0.0901191 -0.0221108 0
-0.087765 -0.0299814 0
-0.0843903 -0.0379733 0
-0.0798845 -0.0458162 0
-0.0741369 -0.0532394 0
-0.0669415 -0.0597363 0
-0.0580921 -0.0647999 0
-0.0481106 -0.0670832 0
-0.0375189 -0.0652392 0
-0.0261157 -0.0577022 0
-0.0136997 -0.0429063 0
-0.0038135 -0.0229671 0
0 0 0
0 0 0
-0.00527978 0.0321496 0
-0.0158203 0.0549551 0
-0.0286685 0.069481 0
-0.0408713 0.0767915 0
-0.0522118 0.0781288 0
-0.0624731 0.0747351 0
-0.0713846 0.0683626 0
-0.0786756 0.0607635 0
-0.0845041 0.0523779 0
-0.0890282 0.043646 0
-0.0924667 0.034836 0
-0.0950387 0.0262158 0
-0.0968541 0.0177593 0
-0.098023 0.00944052 0
-0.0985996 0.00116897 0
-0.0986382 -0.00714575 0
-0.0980719 -0.0155913 0
-0.0968335 -0.0242553 0
-0.0947825 -0.0331677 0
-0.091778 -0.0423584 0
-0.087556 -0.0515981 0
-0.0818524 -0.0606575 0
-0.0745353 -0.0689067 0
-0.0654731 -0.0757162 0
-0.0547784 -0.079514 0
-0.0425637 -0.0787283 0
-0.0294462 -0.071524 0
-0.0160431 -0.0560661 0
-0.00525939 -0.0322572 0
0 0 0
0 0 0
-0.00729667 0.036972 0
-0.017904 0.06396 0
-0.0307973 0.0809302 0
-0.0449516 0.0878483 0
-0.0583932 0.0875809 0
-0.0691482 0.0829944 0
-0.0778425 0.0754567 0
-0.0851016 0.0663358 0
-0.0908334 0.0564668 0
-0.0949456 0.0466849 0
-0.0978755 0.0371014 0
-0.10006 0.0278274 0
-0.101596 0.0188326 0
-0.102582 0.0100865 0
-0.103103 0.00143933 0
-0.103243 -0.0072589 0
-0.10292 -0.0161453 0
-0.102053 -0.025357 0
-0.100494 -0.0349766 0
-0.0980965 -0.0450869 0
-0.0944521 -0.0555212 0
-0.0891513 -0.0661131 0
-0.0820905 -0.0760827 0
-0.0731659 -0.0846502 0
-0.0619695 -0.0901311 0
-0.0480931 -0.0908408 0
-0.0332889 -0.0840809 0
-0.0193093 -0.067153 0
-0.00769821 -0.0393587 0
0 0 0
0 0 0
-0.00796915 0.0463597 0
-0.0209534 0.0778566 0
-0.0364175 0.0959479 0
-0.0518261 0.102091 0
-0.065777 0.0999631 0
-0.076868 0.0932431 0
-0.0854847 0.0835553 0
-0.0920129 0.0725239 0
-0.0967582 0.0610349 0
-0.100026 0.0499742 0
-0.102215 0.0394171 0
-0.103722 0.029439 0
-0.104724 0.0199291 0
-0.105396 0.0107764 0
-0.105812 0.00178119 0
-0.106045 -0.00725626 0
-0.106029 -0.0165419 0
-0.105698 -0.0262816 0
-0.104857 -0.0366278 0
-0.103315 -0.0477328 0
-0.100652 -0.0595244 0
-0.0964514 -0.0719305 0
-0.0902522 -0.0840613 0
-0.0815942 -0.095027 0
-0.0701586 -0.102921 0
-0.0556269 -0.105836 0
-0.039347 -0.100061 0
-0.0226674 -0.0818817 0
-0.00856074 -0.049221 0
0 0 0
0 0 0
-0.00880804 0.0587249 0
-0.0247053 0.0949267 0
-0.043122 0.113133 0
-0.0594885 0.117871 0
-0.0733022 0.113311 0
-0.0840606 0.103623 0
-0.0919072 0.0910592 0
-0.0969859 0.0778719 0
-0.100097 0.0647716 0
-0.102042 0.0524692 0
-0.103137 0.0410207 0
-0.103698 0.0304824 0
-0.103971 0.0206362 0
-0.104207 0.0112639 0
-0.104457 0.00211469 0
-0.104774 -0.00706224 0
-0.105119 -0.0165446 0
-0.105447 -0.0266102 0
-0.105534 -0.0374989 0
-0.105152 -0.0494506 0
-0.10391 -0.0625054 0
-0.101417 -0.0767034 0
-0.0968181 -0.0912246 0
-0.0892598 -0.105249 0
-0.078366 -0.116403 0
-0.0637607 -0.122314 0
-0.0462253 -0.118277 0
-0.0265414 -0.0995848 0
-0.00952695 -0.061679 0
0 0 0
0 0 0
-0.0113242 0.0724798 0
-0.0288966 0.113452 0
-0.0485039 0.131084 0
-0.0659327 0.13354 0
-0.0799078 0.125659 0
-0.0891542 0.112275 0
-0.0947059 0.0963691 0
-0.0975967 0.0809237 0
-0.0986693 0.0663664 0
-0.0987665 0.0531252 0
-0.0982939 0.0411497 0
-0.0976574 0.0303892 0
-0.0970729 0.0205412 0
-0.0967567 0.0113028 0
-0.0967667 0.00235996 0
-0.0971607 -0.00660125 0
-0.0979088 -0.0159171 0
-0.0989812 -0.0259236 0
-0.100185 -0.0369673 0
-0.101329 -0.0493945 0
-0.101981 -0.0633617 0
-0.101712 -0.0790255 0
-0.0995857 -0.0959546 0
-0.0946645 -0.113718 0
-0.0856117 -0.129097 0
-0.0710904 -0.138875 0
-0.0525288 -0.137544 0
-0.0313553 -0.119595 0
-0.0122768 -0.0765675 0
0 0 0
0 0 0
-0.0136722 0.0874413 0
-0.0330256 0.13327 0
-0.0534022 0.149462 0
-0.0701435 0.147992 0
-0.0820174 0.135266 0
-0.0877913 0.117693 0
-0.0894919 0.0985475 0
-0.0891458 0.0811078 0
-0.0874761 0.0654694 0
-0.0852056 0.0517278 0
-0.0828082 0.0396748 0
-0.0807579 0.0291019 0
-0.0791871 0.0196304 0
-0.0782284 0.0108817 0
-0.0779399 0.00249078 0
-0.0783801 -0.00590745 0
-0.079532 -0.0146887 0
-0.0813788 -0.0242287 0
-0.0838094 -0.0349765 0
-0.0867125 -0.0473813 0
-0.0896634 -0.0617404 0
-0.0922374 -0.0783511 0
-0.0935829 -0.0972838 0
-0.0928485 -0.118609 0
-0.0877298 -0.138714 0
-0.0759223 -0.153989 0
-0.0584329 -0.157263 0
-0.036268 -0.141364 0
-0.0149497 -0.0932801 0
0 0 0
0 0 0
-0.0140066 0.103427 0
-0.0365904 0.154218 0
-0.0586555 0.167929 0
-0.0711061 0.160116 0
-0.0760548 0.140393 0
-0.0756142 0.118372 0
-0.0718765 0.096657 0
-0.0669338 0.077853 0
-0.0615193 0.061731 0
-0.0563666 0.0480625 0
-0.0518029 0.0364667 0
-0.0481555 0.0265626 0
-0.045473 0.0178902 0
-0.0438042 0.00998946 0
-0.0431743 0.00248093 0
-0.0436091 -0.00501499 0
-0.0451204 -0.0128891 0
-0.0477201 -0.0215323 0
-0.051405 -0.0314701 0
-0.0561717 -0.0432277 0
-0.0617553 -0.0572882 0
-0.0678912 -0.0741348 0
-0.0738375 -0.0942449 0
-0.0788522 -0.118096 0
-0.0805545 -0.142965 0
-0.0765632 -0.166127 0
-0.064113 -0.176836 0
-0.0404383 -0.164343 0
-0.0156853 -0.11121 0
0 0 0
0 0 0
-0.0145549 0.123489 0
-0.0358208 0.175363 0
-0.053145 0.180627 0
-0.055875 0.164287 0
-0.049833 0.137718 0
-0.0408413 0.112294 0
-0.0304482 0.0893889 0
-0.020202 0.0703778 0
-0.0107212 0.0547433 0
-0.00262451 0.0419685 0
0.00403292 0.0314987 0
0.00919594 0.0227793 0
0.0129179 0.0153136 0
0.0152523 0.00860455 0
0.0162197 0.00228921 0
0.0158408 -0.00399555 0
0.0140723 -0.0106269 0
0.0108707 -0.0179822 0
0.00612188 -0.026601 0
-0.000288616 -0.0370232 0
-0.00836428 -0.0499219 0
-0.0181087 -0.0659703 0
-0.0290329 -0.0859367 0
-0.0406482 -0.11059 0
-0.0512319 -0.138782 0
-0.0590614 -0.169365 0
-0.0573464 -0.189657 0
-0.039297 -0.186973 0
-0.0163643 -0.133144 0
0 0 0
0 0 0
-0.0175446 0.150681 0
-0.0269466 0.195774 0
-0.0257516 0.181699 0
-0.0115047 0.154878 0
0.0088351 0.123921 0
0.0283091 0.0974403 0
0.0462043 0.0754344 0
0.0618079 0.0579011 0
0.0749963 0.0440986 0
0.0856458 0.0332847 0
0.0940099 0.0247438 0
0.100342 0.0177599 0
0.104834 0.0118936 0
0.107677 0.00670553 0
0.108932 0.00187444 0
0.108658 -0.00292082 0
0.106792 -0.00801072 0
0.10327 -0.0137258 0
0.0978654 -0.0205225 0
0.0903543 -0.0288575 0
0.0804024 -0.039558 0
0.0676755 -0.0534513 0
0.0521473 -0.0714578 0
0.0337911 -0.0944978 0
0.0130919 -0.123096 0
-0.0094652 -0.157777 0
-0.0259106 -0.189118 0
-0.0282745 -0.207695 0
-0.0188675 -0.161869 0
0 0 0
0 0 0
0.00444328 0.156551 0
0.0258422 0.189965 0
0.0574614 0.160523 0
0.0925658 0.128508 0
0.126725 0.098381 0
0.15551 0.0746003 0
0.179326 0.0561287 0
0.19858 0.0419291 0
0.213867 0.0312084 0
0.225779 0.0231741 0
0.234841 0.0170738 0
0.241575 0.0121552 0
0.246289 0.00809435 0
0.249288 0.00456758 0
0.250661 0.00132363 0
0.250498 -0.00188871 0
0.248723 -0.00532435 0
0.245261 -0.00923819 0
0.23981 -0.01395 0
0.232072 -0.0197795 0
0.221441 -0.027564 0
0.20731 -0.0381407 0
0.188972 -0.0523928 0
0.165719 -0.0712037 0
0.136606 -0.0962246 0
0.100685 -0.129107 0
0.0629116 -0.165337 0
0.0282423 -0.200401 0
0.00462303 -0.167541 0
0 0 0
2.77334e-30 0 0
0.0788275 0.11265 0
0.158356 0.13245 0
0.230431 0.106475 0
0.286898 0.0817995 0
0.330613 0.0604773 0
0.364433 0.0445619 0
0.39016 0.0328074 0
0.4096 0.0239677 0
0.424125 0.0174846 0
0.435111 0.0127994 0
0.443238 0.00936039 0
0.449187 0.00661584 0
0.453295 0.00437968 0
0.455901 0.00246586 0
0.457106 0.000723793 0
0.457016 -0.000997146 0
0.45555 -0.00285167 0
0.452628 -0.00499451 0
0.447942 -0.00759899 0
0.441181 -0.0108384 0
0.431647 -0.0153076 0
0.418642 -0.0216012 0
0.400709 -0.0303263 0
0.376391 -0.0420903 0
0.3435 -0.0584835 0
0.299849 -0.0810966 0
0.241837 -0.108429 0
0.165867 -0.138981 0
0.0819252 -0.120316 0
2.77334e-30 0 0
0.25 0 0
0.359412 0.0500942 0
0.454955 0.0576542 0
0.531747 0.0446147 0
0.584905 0.0329104 0
0.621403 0.0233151 0
0.648217 0.0166026 0
0.667466 0.0119409 0
0.681271 0.00849783 0
0.69107 0.00604305 0
0.698298 0.00434611 0
0.703518 0.00315272 0
0.70729 0.00220857 0
0.709862 0.00144857 0
0.711482 0.0008076 0
0.712231 0.000230669 0
0.71219 -0.00033721 0
0.711299 -0.00095584 0
0.709499 -0.00168502 0
0.706569 -0.00257912 0
0.702288 -0.00369248 0
0.696131 -0.00528684 0
0.687572 -0.0076239 0
0.675128 -0.0109612 0
0.657314 -0.0155561 0
0.631917 -0.0222746 0
0.596722 -0.0319825 0
0.543367 -0.0445866 0
0.463489 -0.0599939 0
0.363548 -0.0533999 0
0.25 0 0
1 0 0
1 0 0
1 0 0
1 0 0
1 0 0
1 0 0
1 0 0
1 0 0
1 0 0
1 0 0
1 0 0
1 0 0
1 0 0
1 0 0
1 0 0