<?xml version="1.0"?>
<VTKFile type="UnstructuredGrid">
  <UnstructuredGrid>
  <Piece NumberOfPoints="961"  NumberOfCells="225">
    <Points>
      <DataArray type="Float64" NumberOfComponents="3" format="ascii">
0 0 0
0.0333333 0 0
0.0666667 0 0
0.1 0 0
0.133333 0 0
0.166667 0 0
0.2 0 0
0.233333 0 0
0.266667 0 0
0.3 0 0
0.333333 0 0
0.366667 0 0
0.4 0 0
0.433333 0 0
0.466667 0 0
0.5 0 0
0.533333 0 0
0.566667 0 0
0.6 0 0
0.633333 0 0
0.666667 0 0
0.7 0 0
0.733333 0 0
0.766667 0 0
0.8 0 0
0.833333 0 0
0.866667 0 0
0.9 0 0
0.933333 0 0
0.966667 0 0
1 0 0
0 0.0333333 0
0.0333333 0.0333333 0
0.0666667 0.0333333 0
0.1 0.0333333 0
0.133333 0.0333333 0
0.166667 0.0333333 0
0.2 0.0333333 0
0.233333 0.0333333 0
0.266667 0.0333333 0
0.3 0.0333333 0
0.333333 0.0333333 0
0.366667 0.0333333 0
0.4 0.0333333 0
0.433333 0.0333333 0
0.466667 0.0333333 0
0.5 0.0333333 0
0.533333 0.0333333 0
0.566667 0.0333333 0
0.6 0.0333333 0
0.633333 0.0333333 0
0.666667 0.0333333 0
0.7 0.0333333 0
0.733333 0.0333333 0
0.766667 0.0333333 0
0.8 0.0333333 0
0.833333 0.0333333 0
0.866667 0.0333333 0
0.9 0.0333333 0
0.933333 0.0333333 0
0.966667 0.0333333 0
1 0.0333333 0
0 0.0666667 0
0.0333333 0.0666667 0
0.0666667 0.0666667 0
0.1 0.0666667 0
0.133333 0.0666667 0
0.166667 0.0666667 0
0.2 0.0666667 0
0.233333 0.0666667 0
0.266667 0.0666667 0
0.3 0.0666667 0
0.333333 0.0666667 0
0.366667 0.0666667 0
0.4 0.0666667 0
0.433333 0.0666667 0
0.466667 0.0666667 0
0.5 0.0666667 0
0.533333 0.0666667 0
0.566667 0.0666667 0
0.6 0.0666667 0
0.633333 0.0666667 0
0.666667 0.0666667 0
0.7 0.0666667 0
0.733333 0.0666667 0
0.766667 0.0666667 0
0.8 0.0666667 0
0.833333 0.0666667 0
0.866667 0.0666667 0
0.9 0.0666667 0
0.933333 0.0666667 0
0.966667 0.0666667 0
1 0.0666667 0
0 0.1 0
0.0333333 0.1 0
0.0666667 0.1 0
0.1 0.1 0
0.133333 0.1 0
0.166667 0.1 0
0.2 0.1 0
0.233333 0.1 0
0.266667 0.1 0
0.3 0.1 0
0.333333 0.1 0
0.366667 0.1 0
0.4 0.1 0
0.433333 0.1 0
0.466667 0.1 0
0.5 0.1 0
0.533333 0.1 0
0.566667 0.1 0
0.6 0.1 0
0.633333 0.1 0
0.666667 0.1 0
0.7 0.1 0
0.733333 0.1 0
0.766667 0.1 0
0.8 0.1 0
0.833333 0.1 0
0.866667 0.1 0
0.9 0.1 0
0.933333 0.1 0
0.966667 0.1 0
1 0.1 0
0 0.133333 0
0.0333333 0.133333 0
0.0666667 0.133333 0
0.1 0.133333 0
0.133333 0.133333 0
0.166667 0.133333 0
0.2 0.133333 0
0.233333 0.133333 0
0.266667 0.133333 0
0.3 0.133333 0
0.333333 0.133333 0
0.366667 0.133333 0
0.4 0.133333 0
0.433333 0.133333 0
0.466667 0.133333 0
0.5 0.133333 0
0.533333 0.133333 0
0.566667 0.133333 0
0.6 0.133333 0
0.633333 0.133333 0
0.666667 0.133333 0
0.7 0.133333 0
0.733333 0.133333 0
0.766667 0.133333 0
0.8 0.133333 0
0.833333 0.133333 0
0.866667 0.133333 0
0.9 0.133333 0
0.933333 0.133333 0
0.966667 0.133333 0
1 0.133333 0
0 0.166667 0
0.0333333 0.166667 0
0.0666667 0.166667 0
0.1 0.166667 0
0.133333 0.166667 0
0.166667 0.166667 0
0.2 0.166667 0
0.233333 0.166667 0
0.266667 0.166667 0
0.3 0.166667 0
0.333333 0.166667 0
0.366667 0.166667 0
0.4 0.166667 0
0.433333 0.166667 0
0.466667 0.166667 0
0.5 0.166667 0
0.533333 0.166667 0
0.566667 0.166667 0
0.6 0.166667 0
0.633333 0.166667 0
0.666667 0.166667 0
0.7 0.166667 0
0.733333 0.166667 0
0.766667 0.166667 0
0.8 0.166667 0
0.833333 0.166667 0
0.866667 0.166667 0
0.9 0.166667 0
0.933333 0.166667 0
0.966667 0.166667 0
1 0.166667 0
0 0.2 0
0.0333333 0.2 0
0.0666667 0.2 0
0.1 0.2 0
0.133333 0.2 0
0.166667 0.2 0
0.2 0.2 0
0.233333 0.2 0
0.266667 0.2 0
0.3 0.2 0
0.333333 0.2 0
0.366667 0.2 0
0.4 0.2 0
0.433333 0.2 0
0.466667 0.2 0
0.5 0.2 0
0.533333 0.2 0
0.566667 0.2 0
0.6 0.2 0
0.633333 0.2 0
0.666667 0.2 0
0.7 0.2 0
0.733333 0.2 0
0.766667 0.2 0
0.8 0.2 0
0.833333 0.2 0
0.866667 0.2 0
0.9 0.2 0
0.933333 0.2 0
0.966667 0.2 0
1 0.2 0
0 0.233333 0
0.0333333 0.233333 0
0.0666667 0.233333 0
0.1 0.233333 0
0.133333 0.233333 0
0.166667 0.233333 0
0.2 0.233333 0
0.233333 0.233333 0
0.266667 0.233333 0
0.3 0.233333 0
0.333333 0.233333 0
0.366667 0.233333 0
0.4 0.233333 0
0.433333 0.233333 0
0.466667 0.233333 0
0.5 0.233333 0
0.533333 0.233333 0
0.566667 0.233333 0
0.6 0.233333 0
0.633333 0.233333 0
0.666667 0.233333 0
0.7 0.233333 0
0.733333 0.233333 0
0.766667 0.233333 0
0.8 0.233333 0
0.833333 0.233333 0
0.866667 0.233333 0
0.9 0.233333 0
0.933333 0.233333 0
0.966667 0.233333 0
1 0.233333 0
0 0.266667 0
0.0333333 0.266667 0
0.0666667 0.266667 0
0.1 0.266667 0
0.133333 0.266667 0
0.166667 0.266667 0
0.2 0.266667 0
0.233333 0.266667 0
0.266667 0.266667 0
0.3 0.266667 0
0.333333 0.266667 0
0.366667 0.266667 0
0.4 0.266667 0
0.433333 0.266667 0
0.466667 0.266667 0
0.5 0.266667 0
0.533333 0.266667 0
0.566667 0.266667 0
0.6 0.266667 0
0.633333 0.266667 0
0.666667 0.266667 0
0.7 0.266667 0
0.733333 0.266667 0
0.766667 0.266667 0
0.8 0.266667 0
0.833333 0.266667 0
0.866667 0.266667 0
0.9 0.266667 0
0.933333 0.266667 0
0.966667 0.266667 0
1 0.266667 0
0 0.3 0
0.0333333 0.3 0
0.0666667 0.3 0
0.1 0.3 0
0.133333 0.3 0
0.166667 0.3 0
0.2 0.3 0
0.233333 0.3 0
0.266667 0.3 0
0.3 0.3 0
0.333333 0.3 0
0.366667 0.3 0
0.4 0.3 0
0.433333 0.3 0
0.466667 0.3 0
0.5 0.3 0
0.533333 0.3 0
0.566667 0.3 0
0.6 0.3 0
0.633333 0.3 0
0.666667 0.3 0
0.7 0.3 0
0.733333 0.3 0
0.766667 0.3 0
0.8 0.3 0
0.833333 0.3 0
0.866667 0.3 0
0.9 0.3 0
0.933333 0.3 0
0.966667 0.3 0
1 0.3 0
0 0.333333 0
0.0333333 0.333333 0
0.0666667 0.333333 0
0.1 0.333333 0
0.133333 0.333333 0
0.166667 0.333333 0
0.2 0.333333 0
0.233333 0.333333 0
0.266667 0.333333 0
0.3 0.333333 0
0.333333 0.333333 0
0.366667 0.333333 0
0.4 0.333333 0
0.433333 0.333333 0
0.466667 0.333333 0
0.5 0.333333 0
0.533333 0.333333 0
0.566667 0.333333 0
0.6 0.333333 0
0.633333 0.333333 0
0.666667 0.333333 0
0.7 0.333333 0
0.733333 0.333333 0
0.766667 0.333333 0
0.8 0.333333 0
0.833333 0.333333 0
0.866667 0.333333 0
0.9 0.333333 0
0.933333 0.333333 0
0.966667 0.333333 0
1 0.333333 0
0 0.366667 0
0.0333333 0.366667 0
0.0666667 0.366667 0
0.1 0.366667 0
0.133333 0.366667 0
0.166667 0.366667 0
0.2 0.366667 0
0.233333 0.366667 0
0.266667 0.366667 0
0.3 0.366667 0
0.333333 0.366667 0
0.366667 0.366667 0
0.4 0.366667 0
0.433333 0.366667 0
0.466667 0.366667 0
0.5 0.366667 0
0.533333 0.366667 0
0.566667 0.366667 0
0.6 0.366667 0
0.633333 0.366667 0
0.666667 0.366667 0
0.7 0.366667 0
0.733333 0.366667 0
0.766667 0.366667 0
0.8 0.366667 0
0.833333 0.366667 0
0.866667 0.366667 0
0.9 0.366667 0
0.933333 0.366667 0
0.966667 0.366667 0
1 0.366667 0
0 0.4 0
0.0333333 0.4 0
0.0666667 0.4 0
0.1 0.4 0
0.133333 0.4 0
0.166667 0.4 0
0.2 0.4 0
0.233333 0.4 0
0.266667 0.4 0
0.3 0.4 0
0.333333 0.4 0
0.366667 0.4 0
0.4 0.4 0
0.433333 0.4 0
0.466667 0.4 0
0.5 0.4 0
0.533333 0.4 0
0.566667 0.4 0
0.6 0.4 0
0.633333 0.4 0
0.666667 0.4 0
0.7 0.4 0
0.733333 0.4 0
0.766667 0.4 0
0.8 0.4 0
0.833333 0.4 0
0.866667 0.4 0
0.9 0.4 0
0.933333 0.4 0
0.966667 0.4 0
1 0.4 0
0 0.433333 0
0.0333333 0.433333 0
0.0666667 0.433333 0
0.1 0.433333 0
0.133333 0.433333 0
0.166667 0.433333 0
0.2 0.433333 0
0.233333 0.433333 0
0.266667 0.433333 0
0.3 0.433333 0
0.333333 0.433333 0
0.366667 0.433333 0
0.4 0.433333 0
0.433333 0.433333 0
0.466667 0.433333 0
0.5 0.433333 0
0.533333 0.433333 0
0.566667 0.433333 0
0.6 0.433333 0
0.633333 0.433333 0
0.666667 0.433333 0
0.7 0.433333 0
0.733333 0.433333 0
0.766667 0.433333 0
0.8 0.433333 0
0.833333 0.433333 0
0.866667 0.433333 0
0.9 0.433333 0
0.933333 0.433333 0
0.966667 0.433333 0
1 0.433333 0
0 0.466667 0
0.0333333 0.466667 0
0.0666667 0.466667 0
0.1 0.466667 0
0.133333 0.466667 0
0.166667 0.466667 0
0.2 0.466667 0
0.233333 0.466667 0
0.266667 0.466667 0
0.3 0.466667 0
0.333333 0.466667 0
0.366667 0.466667 0
0.4 0.466667 0
0.433333 0.466667 0
0.466667 0.466667 0
0.5 0.466667 0
0.533333 0.466667 0
0.566667 0.466667 0
0.6 0.466667 0
0.633333 0.466667 0
0.666667 0.466667 0
0.7 0.466667 0
0.733333 0.466667 0
0.766667 0.466667 0
0.8 0.466667 0
0.833333 0.466667 0
0.866667 0.466667 0
0.9 0.466667 0
0.933333 0.466667 0
0.966667 0.466667 0
1 0.466667 0
0 0.5 0
0.0333333 0.5 0
0.0666667 0.5 0
0.1 0.5 0
0.133333 0.5 0
0.166667 0.5 0
0.2 0.5 0
0.233333 0.5 0
0.266667 0.5 0
0.3 0.5 0
0.333333 0.5 0
0.366667 0.5 0
0.4 0.5 0
0.433333 0.5 0
0.466667 0.5 0
0.5 0.5 0
0.533333 0.5 0
0.566667 0.5 0
0.6 0.5 0
0.633333 0.5 0
0.666667 0.5 0
0.7 0.5 0
0.733333 0.5 0
0.766667 0.5 0
0.8 0.5 0
0.833333 0.5 0
0.866667 0.5 0
0.9 0.5 0
0.933333 0.5 0
0.966667 0.5 0
1 0.5 0
0 0.533333 0
0.0333333 0.533333 0
0.0666667 0.533333 0
0.1 0.533333 0
0.133333 0.533333 0
0.166667 0.533333 0
0.2 0.533333 0
0.233333 0.533333 0
0.266667 0.533333 0
0.3 0.533333 0
0.333333 0.533333 0
0.366667 0.533333 0
0.4 0.533333 0
0.433333 0.533333 0
0.466667 0.533333 0
0.5 0.533333 0
0.533333 0.533333 0
0.566667 0.533333 0
0.6 0.533333 0
0.633333 0.533333 0
0.666667 0.533333 0
0.7 0.533333 0
0.733333 0.533333 0
0.766667 0.533333 0
0.8 0.533333 0
0.833333 0.533333 0
0.866667 0.533333 0
0.9 0.533333 0
0.933333 0.533333 0
0.966667 0.533333 0
1 0.533333 0
0 0.566667 0
0.0333333 0.566667 0
0.0666667 0.566667 0
0.1 0.566667 0
0.133333 0.566667 0
0.166667 0.566667 0
0.2 0.566667 0
0.233333 0.566667 0
0.266667 0.566667 0
0.3 0.566667 0
0.333333 0.566667 0
0.366667 0.566667 0
0.4 0.566667 0
0.433333 0.566667 0
0.466667 0.566667 0
0.5 0.566667 0
0.533333 0.566667 0
0.566667 0.566667 0
0.6 0.566667 0
0.633333 0.566667 0
0.666667 0.566667 0
0.7 0.566667 0
0.733333 0.566667 0
0.766667 0.566667 0
0.8 0.566667 0
0.833333 0.566667 0
0.866667 0.566667 0
0.9 0.566667 0
0.933333 0.566667 0
0.966667 0.566667 0
1 0.566667 0
0 0.6 0
0.0333333 0.6 0
0.0666667 0.6 0
0.1 0.6 0
0.133333 0.6 0
0.166667 0.6 0
0.2 0.6 0
0.233333 0.6 0
0.266667 0.6 0
0.3 0.6 0
0.333333 0.6 0
0.366667 0.6 0
0.4 0.6 0
0.433333 0.6 0
0.466667 0.6 0
0.5 0.6 0
0.533333 0.6 0
0.566667 0.6 0
0.6 0.6 0
0.633333 0.6 0
0.666667 0.6 0
0.7 0.6 0
0.733333 0.6 0
0.766667 0.6 0
0.8 0.6 0
0.833333 0.6 0
0.866667 0.6 0
0.9 0.6 0
0.933333 0.6 0
0.966667 0.6 0
1 0.6 0
0 0.633333 0
0.0333333 0.633333 0
0.0666667 0.633333 0
0.1 0.633333 0
0.133333 0.633333 0
0.166667 0.633333 0
0.2 0.633333 0
0.233333 0.633333 0
0.266667 0.633333 0
[...]
    <PointData>
      <DataArray type="Float64" NumberOfComponents="3" Name="Velocity" format="ascii">
0 0 0
0 0 0
0 0 0
0 0 0
0 0 0
0 0 0
0 0 0
0 0 0
0 0 0
0 0 0
0 0 0
0 0 0
0 0 0
0 0 0
0 0 0
0 0 0
0 0 0
0 0 0
0 0 0
0 0 0
0 0 0
0 0 0
0 0 0
0 0 0
0 0 0
0 0 0
0 0 0
0 0 0
0 0 0
0 0 0
0 0 0
0 0 0
-0.000475358 0.000430659 0
-0.00142011 0.000946988 0
-0.00297458 0.00144705 0
-0.00527908 0.0018289 0
-0.00800704 0.00205238 0
-0.0108319 0.00207729 0
-0.0136401 0.00197835 0
-0.0163181 0.00183024 0
-0.0187674 0.00163197 0
-0.0208895 0.00138254 0
-0.0226519 0.00110248 0
-0.024022 0.000812327 0
-0.0249787 0.000512424 0
-0.0255009 0.000203121 0
-0.0255831 -0.000110236 0
-0.0252198 -0.000422296 0
-0.0244245 -0.000723066 0
-0.0232108 -0.00100255 0
-0.0216152 -0.00126215 0
-0.0196741 -0.00150327 0
-0.0174318 -0.00170054 0
-0.0149326 -0.00182857 0
-0.0122881 -0.00190117 0
-0.00960982 -0.0019321 0
-0.00698321 -0.00185559 0
-0.00449361 -0.00160583 0
-0.0024321 -0.00122556 0
-0.00108977 -0.000757534 0
-0.000325954 -0.000312198 0
0 0 0
0 0 0
-0.000701513 0.00108688 0
-0.0029676 0.0026677 0
-0.00648974 0.00422658 0
-0.0109594 0.0052476 0
-0.0159847 0.00579514 0
-0.0211738 0.00593358 0
-0.0262934 0.00575611 0
-0.0311099 0.00535596 0
-0.0354916 0.00478257 0
-0.0393067 0.00408542 0
-0.0424892 0.00329861 0
-0.044973 0.00245626 0
-0.0467123 0.00156922 0
-0.0476612 0.000648358 0
-0.0478102 -0.000285923 0
-0.0471495 -0.00121321 0
-0.0457014 -0.00211022 0
-0.0434881 -0.00295366 0
-0.0405777 -0.00372651 0
-0.0370383 -0.00441175 0
-0.0329687 -0.00497843 0
-0.0284676 -0.00539559 0
-0.0236821 -0.00562434 0
-0.0187592 -0.0056258 0
-0.0139322 -0.0053467 0
-0.0094344 -0.00473381 0
-0.00554302 -0.00372776 0
-0.00253518 -0.0022692 0
-0.000618344 -0.000859496 0
0 0 0
0 0 0
-0.00123897 0.00285782 0
-0.00489863 0.00613318 0
-0.0102595 0.00907265 0
-0.0166023 0.0109228 0
-0.0235336 0.0118616 0
-0.0306605 0.012067 0
-0.0376628 0.0116825 0
-0.0442205 0.0108516 0
-0.0501863 0.00968379 0
-0.0554126 0.00828866 0
-0.0597938 0.00671404 0
-0.0632239 0.00500779 0
-0.0656357 0.00320135 0
-0.0669619 0.00132622 0
-0.0671862 -0.000576338 0
-0.0662924 -0.00246502 0
-0.0643118 -0.00429438 0
-0.0612758 -0.00601896 0
-0.0572785 -0.00759138 0
-0.0524142 -0.0089642 0
-0.0468371 -0.0100974 0
-0.0407014 -0.010951 0
-0.0341699 -0.0114348 0
-0.0274052 -0.0114586 0
-0.0207372 -0.0109503 0
-0.0144959 -0.00983788 0
-0.00893371 -0.00798839 0
-0.00430325 -0.00526907 0
-0.00114513 -0.00237468 0
0 0 0
0 0 0
-0.00264822 0.00663264 0
-0.00746939 0.0123144 0
-0.0139981 0.0167193 0
-0.0217689 0.0195213 0
-0.0302542 0.0208852 0
-0.0389263 0.0209757 0
-0.0474513 0.0201066 0
-0.0554953 0.0185914 0
-0.0628653 0.0165676 0
-0.0693684 0.0141723 0
-0.0748475 0.0114744 0
-0.0791458 0.00854289 0
-0.0821843 0.00543978 0
-0.083884 0.0022272 0
-0.0842161 -0.00103075 0
-0.0831516 -0.00426998 0
-0.0807368 -0.00740844 0
-0.0770179 -0.0103641 0
-0.0721087 -0.013055 0
-0.0661232 -0.0153994 0
-0.0592631 -0.0173212 0
-0.0517304 -0.0187448 0
-0.0437395 -0.0195978 0
-0.0355052 -0.0198081 0
-0.0272888 -0.0191435 0
-0.0193516 -0.017372 0
-0.0122051 -0.0144893 0
-0.006361 -0.0104912 0
-0.00217427 -0.00559054 0
0 0 0
0 0 0
-0.0037287 0.0108493 0
-0.0097818 0.0191623 0
-0.0176566 0.0251073 0
-0.0268504 0.0288526 0
-0.0367522 0.0306185 0
-0.046751 0.0306252 0
-0.0565529 0.0293202 0
-0.065864 0.0271511 0
-0.0744394 0.0242656 0
-0.082034 0.0208113 0
-0.0884603 0.0168937 0
-0.0935306 0.0126181 0
-0.0971454 0.0080757 0
-0.0992047 0.00335783 0
-0.0996628 -0.00143733 0
-0.0984738 -0.00621161 0
-0.0956928 -0.0108377 0
-0.0913752 -0.0151882 0
-0.0856575 -0.0191423 0
-0.0786766 -0.022579 0
-0.0706707 -0.0253737 0
-0.0618783 -0.027402 0
-0.052586 -0.0286264 0
-0.0430799 -0.0290094 0
-0.0335452 -0.0282039 0
-0.0241667 -0.0258625 0
-0.0155744 -0.0219652 0
-0.00839834 -0.0164915 0
-0.00306477 -0.00923769 0
0 0 0
0 0 0
-0.00327983 0.0139458 0
-0.0109378 0.0246275 0
-0.0211863 0.0321771 0
-0.0322378 0.0367262 0
-0.0436334 0.0388143 0
-0.0549142 0.0389808 0
-0.0658615 0.037615 0
-0.0762565 0.0351059 0
-0.0858191 0.0316093 0
-0.0942695 0.0272808 0
-0.101442 0.0222859 0
-0.10717 0.0167899 0
-0.111307 0.0109003 0
-0.113701 0.00472465 0
-0.114289 -0.00158421 0
-0.113005 -0.00787343 0
-0.109896 -0.0139674 0
-0.105009 -0.0196904 0
-0.0985143 -0.0248777 0
-0.0905855 -0.0293646 0
-0.0814834 -0.0329788 0
-0.0714693 -0.0355479 0
-0.0609044 -0.0370337 0
-0.0501501 -0.0373978 0
-0.0394647 -0.0364091 0
-0.0291064 -0.033836 0
-0.0192587 -0.0291509 0
-0.0101052 -0.0218258 0
-0.00317564 -0.0120467 0
0 0 0
0 0 0
-0.00296077 0.0196448 0
-0.0117406 0.0336885 0
-0.0236706 0.0429493 0
-0.0360816 0.0482454 0
-0.0487341 0.0504895 0
-0.0613883 0.0505944 0
-0.0737272 0.0488823 0
-0.0854337 0.0456755 0
-0.0962133 0.0411891 0
-0.105771 0.0356381 0
-0.113932 0.0292157 0
-0.120519 0.0221148 0
-0.125338 0.0144656 0
-0.128198 0.00639802 0
-0.129014 -0.00187735 0
-0.127702 -0.0101499 0
-0.124298 -0.0181794 0
-0.118836 -0.0257259 0
-0.11151 -0.032564 0
-0.102514 -0.0384686 0
-0.0921454 -0.043216 0
-0.0807041 -0.0465821 0
-0.0686137 -0.0484753 0
-0.056298 -0.0488038 0
-0.0442341 -0.0475146 0
-0.032899 -0.0445545 0
-0.0220279 -0.0390789 0
-0.011356 -0.030243 0
-0.00323087 -0.0174242 0
0 0 0
0 0 0
-0.00443068 0.031669 0
-0.0129935 0.0513235 0
-0.0241927 0.0624446 0
-0.0365324 0.0685137 0
-0.0498906 0.0706612 0
-0.0641454 0.0700176 0
-0.0784998 0.0670135 0
-0.0921565 0.0620795 0
-0.104831 0.0555953 0
-0.116237 0.0479404 0
-0.126071 0.0392476 0
-0.134028 0.0296493 0
-0.139911 0.0193236 0
-0.143519 0.0084483 0
-0.144755 -0.00272267 0
-0.14352 -0.0139354 0
-0.139849 -0.0248558 0
-0.133777 -0.0351497 0
-0.125477 -0.0445035 0
-0.115125 -0.0526032 0
-0.103101 -0.0591649 0
-0.0897838 -0.0639043 0
-0.0756328 -0.0666068 0
-0.061106 -0.0670578 0
-0.0470405 -0.065276 0
-0.0342731 -0.0612801 0
-0.0226521 -0.0547816 0
-0.0120255 -0.045492 0
-0.00395443 -0.0287765 0
0 0 0
0 0 0
-0.00524135 0.0409135 0
-0.0128926 0.0652069 0
-0.0228725 0.0783222 0
-0.0350997 0.0857014 0
-0.0491805 0.0884166 0
-0.0647213 0.0875401 0
-0.0806418 0.0836903 0
-0.0958616 0.0774859 0
-0.110079 0.0694163 0
-0.122991 0.0599709 0
-0.134191 0.0492467 0
-0.14327 0.0373406 0
-0.150036 0.0244972 0
-0.154297 0.010961 0
-0.155949 -0.00297026 0
-0.154883 -0.016999 0
-0.151124 -0.0307087 0
-0.144696 -0.0436825 0
-0.135745 -0.0555022 0
-0.124421 -0.0657492 0
-0.111147 -0.0740731 0
-0.0963502 -0.0801232 0
-0.0805246 -0.0835563 0
-0.0641662 -0.0840289 0
-0.0483413 -0.0815228 0
-0.0341166 -0.0760198 0
-0.0218147 -0.0679727 0
-0.0117588 -0.0578346 0
-0.00435256 -0.0377841 0
0 0 0
0 0 0
-0.00294453 0.0382731 0
-0.009634 0.0630132 0
-0.0198298 0.0782414 0
-0.0332932 0.0879789 0
-0.0486814 0.0928431 0
-0.0646516 0.0934514 0
-0.0806157 0.0905944 0
-0.0959854 0.0850624 0
-0.110366 0.0772403 0
-0.123362 0.0675126 0
-0.134626 0.0560782 0
-0.143813 0.043136 0
-0.150725 0.0290094 0
-0.155166 0.0140218 0
-0.157031 -0.00147022 0
-0.156215 -0.0171099 0
-0.152698 -0.0324503 0
-0.14646 -0.0470448 0
-0.137647 -0.0603662 0
-0.126402 -0.0718874 0
-0.113083 -0.0811881 0
-0.0980448 -0.0878476 0
-0.0818522 -0.0914518 0
-0.0650708 -0.0915862 0
-0.0485945 -0.0880846 0
-0.0333173 -0.0807808 0
-0.0201995 -0.0703662 0
-0.0102011 -0.0575322 0
-0.00343149 -0.0361273 0
0 0 0
0 0 0
-0.00118084 0.0320259 0
-0.00756861 0.0559638 0
-0.0183826 0.0733396 0
-0.0328421 0.0856793 0
-0.0489566 0.0931204 0
-0.0647356 0.0958004 0
-0.0801093 0.0945732 0
-0.095008 0.0902927 0
-0.108944 0.0832267 0
-0.121431 0.0736431 0
-0.132222 0.0618943 0
-0.141071 0.0483328 0
-0.147785 0.0333544 0
-0.15217 0.0173551 0
-0.15413 0.000748011 0
-0.153571 -0.0160539 0
-0.150439 -0.0325973 0
-0.144681 -0.0484286 0
-0.136429 -0.0629421 0
-0.125814 -0.075532 0
-0.113088 -0.0856846 0
-0.0985036 -0.0928864 0
-0.08266 -0.0966582 0
-0.0661555 -0.0965211 0
-0.0496315 -0.0921364 0
-0.0337291 -0.0831653 0
-0.0198799 -0.0701839 0
-0.00951539 -0.0537681 0
-0.00282544 -0.0312596 0
0 0 0
0 0 0
-0.00359087 0.0304498 0
-0.0110474 0.0552799 0
-0.0218492 0.0747539 0
-0.0354757 0.0891358 0
-0.0505694 0.0984287 0
-0.0657723 0.102636 0
-0.0808104 0.102474 0
-0.0954092 0.0986602 0
-0.109067 0.0915349 0
-0.121282 0.0814401 0
-0.131823 0.0688474 0
-0.140459 0.0542283 0
-0.147025 0.0380265 0
-0.151357 0.0206859 0
-0.153376 0.00265499 0
-0.153007 -0.0156173 0
-0.150216 -0.033666 0
-0.14497 -0.0510259 0
-0.137341 -0.0670764 0
-0.127398 -0.081197 0
-0.11534 -0.0927375 0
-0.101363 -0.101048 0
-0.0859924 -0.10554 0
-0.0697563 -0.105625 0
-0.0532842 -0.100853 0
-0.0372058 -0.0907755 0
-0.0229297 -0.0756476 0
-0.0118646 -0.0557255 0
-0.00416865 -0.0306346 0
0 0 0
0 0 0
-0.00656957 0.0330422 0
-0.0154384 0.0606398 0
-0.0264022 0.0826347 0
-0.0392565 0.0988687 0
-0.0534723 0.109458 0
-0.0685201 0.114521 0
-0.083724 0.114662 0
-0.098408 0.110488 0
-0.112093 0.10251 0
-0.1243 0.0912363 0
-0.134804 0.0772305 0
-0.143379 0.0610547 0
-0.149903 0.0431801 0
-0.154249 0.024078 0
-0.156362 0.00421056 0
-0.156182 -0.0159604 0
-0.153699 -0.0359523 0
-0.148904 -0.0552827 0
-0.141792 -0.0733305 0
-0.132361 -0.0894744 0
-0.120751 -0.102924 0
-0.107105 -0.112888 0
-0.091857 -0.11863 0
-0.0754407 -0.119414 0
-0.0585823 -0.114651 0
-0.0420079 -0.103749 0
-0.0269928 -0.086625 0
-0.0148122 -0.0631923 0
-0.00572743 -0.0341009 0
0 0 0
0 0 0
-0.00651188 0.0393004 0
-0.0161096 0.0717219 0
-0.0282143 0.0971321 0
-0.042247 0.115399 0
-0.057618 0.1269 0
-0.0737372 0.132016 0
-0.0898553 0.131499 0
-0.105223 0.126099 0
-0.119381 0.116495 0
-0.131869 0.103364 0
-0.142538 0.0873369 0
-0.151235 0.0690442 0
-0.157875 0.0489695 0
-0.16237 0.0275959 0
-0.164677 0.00537457 0
-0.164752 -0.0172433 0
-0.162559 -0.0397518 0
-0.15806 -0.0616449 0
-0.151196 -0.0822654 0
-0.141905 -0.100956 0
-0.13023 -0.11682 0
-0.116214 -0.12896 0
-0.100261 -0.13646 0
-0.0827763 -0.138406 0
-0.0645555 -0.133944 0
-0.0463962 -0.122225 0
-0.0297131 -0.102984 0
-0.0159215 -0.0759565 0
-0.0057681 -0.0415072 0
0 0 0
0 0 0
-0.00545285 0.0468886 0
-0.0155513 0.0849342 0
-0.0291135 0.114127 0
-0.0449574 0.134458 0
-0.0620964 0.146652 0
-0.0795439 0.151431 0
-0.096604 0.149807 0
-0.112581 0.14279 0
-0.127076 0.131234 0
-0.139691 0.115996 0
-0.150366 0.0977615 0
-0.159042 0.0772136 0
-0.165685 0.0548412 0
-0.170259 0.0311328 0
-0.172737 0.00651118 0
-0.17309 -0.0186007 0
-0.17124 -0.0436932 0
-0.167107 -0.0682569 0
-0.160571 -0.0915952 0
-0.151508 -0.113011 0
-0.139854 -0.131526 0
-0.125541 -0.146159 0
-0.108922 -0.155771 0
-0.0903493 -0.159221 0
-0.0706696 -0.155334 0
-0.0507309 -0.142938 0
-0.0321711 -0.121558 0
-0.0166285 -0.0907172 0
-0.00545429 -0.0502528 0
0 0 0
0 0 0
-0.00542757 0.0534708 0
-0.0162537 0.0966848 0
-0.0309275 0.129502 0
-0.0478978 0.151781 0
-0.0659978 0.164609 0
-0.0840605 0.169073 0
-0.10137 0.16641 0
-0.117208 0.157856 0
-0.131325 0.144468 0
-0.143466 0.127306 0
-0.15363 0.107099 0
-0.161815 0.0845794 0
-0.168073 0.0602418 0
-0.172455 0.0345821 0
-0.174956 0.00798453 0
-0.175568 -0.0191667 0
-0.174188 -0.0464048 0
-0.170714 -0.0732632 0
-0.164938 -0.0990339 0
-0.15665 -0.123009 0
-0.145701 -0.14414 0
-0.131939 -0.16138 0
-0.115557 -0.173302 0
-0.0967463 -0.178482 0
-0.0763905 -0.175422 0
-0.0553726 -0.162625 0
-0.0354473 -0.13918 0
-0.0183692 -0.104174 0
-0.00594962 -0.0577369 0
0 0 0
0 0 0
-0.00590324 0.0603482 0
-0.017572 0.108696 0
-0.0331782 0.144924 0
-0.0508941 0.168911 0
-0.069416 0.182106 0
-0.0874401 0.185954 0
-0.104286 0.181994 0
-0.119273 0.17176 0
-0.132313 0.156494 0
-0.143316 0.137436 0
-0.152369 0.115373 0
-0.159556 0.091092 0
-0.165026 0.065074 0
-0.168926 0.0378016 0
-0.171283 0.00960384 0
-0.172124 -0.0191901 0
-0.171331 -0.0481893 0
-0.168785 -0.0770028 0
-0.164193 -0.104956 0
-0.15726 -0.131374 0
-0.147721 -0.15514 0
-0.13531 -0.175139 0
-0.120018 -0.189675 0
-0.101833 -0.197051 0
-0.0815645 -0.195338 0
-0.0600201 -0.182602 0
-0.0390704 -0.157392 0
-0.0205857 -0.118257 0
-0.00681327 -0.0656436 0
0 0 0
0 0 0
-0.0063471 0.0688219 0
-0.0188611 0.122692 0
-0.0353876 0.162065 0
-0.0537724 0.187397 0
-0.0724452 0.200475 0
-0.0898357 0.203086 0
-0.105487 0.197245 0
-0.118943 0.184967 0
-0.130228 0.16761 0
-0.139364 0.146533 0
-0.146622 0.122607 0
-0.152268 0.0967016 0
-0.156531 0.0692404 0
-0.159639 0.0406488 0
-0.161669 0.0111783 0
-0.1627 -0.0189195 0
-0.162596 -0.049349 0
-0.161223 -0.0798148 0
-0.158231 -0.109736 0
-0.153269 -0.138531 0
-0.145867 -0.165003 0
-0.135559 -0.187956 0
-0.122158 -0.205511 0
-0.105475 -0.215793 0
-0.0860381 -0.216213 0
-0.064372 -0.204185 0
-0.0425688 -0.177738 0
-0.0227201 -0.134899 0
-0.0076044 -0.0756573 0
0 0 0
0 0 0
-0.00681708 0.0783072 0
-0.0202985 0.137956 0
-0.0377036 0.180168 0
-0.0562919 0.206168 0
-0.074395 0.21834 0
-0.0903447 0.219072 0
-0.103919 0.210858 0
-0.114898 0.196191 0
-0.123497 0.176577 0
-0.129933 0.153526 0
-0.134671 0.127942 0
-0.138178 0.100731 0
-0.140763 0.0722383 0
-0.142738 0.04281 0
-0.144233 0.0125953 0
-0.145381 -0.0182565 0
-0.146044 -0.0495703 0
-0.146086 -0.0811707 0
-0.145112 -0.112606 0
-0.142726 -0.143425 0
-0.138256 -0.172428 0
-0.131033 -0.198415 0
-0.120593 -0.219321 0
-0.106475 -0.233082 0
-0.0888749 -0.236436 0
-0.0679881 -0.226121 0
-0.0459471 -0.199339 0
-0.0248836 -0.153292 0
-0.00837539 -0.0871295 0
0 0 0
0 0 0
-0.00737116 0.0882198 0
-0.0220614 0.153775 0
-0.0402739 0.198482 0
-0.0582117 0.224155 0
-0.0745752 0.234324 0
-0.0880645 0.232516 0
-0.0985284 0.221526 0
-0.105816 0.204147 0
-0.110547 0.182159 0
-0.113343 0.157342 0
-0.1148 0.130516 0
-0.115512 0.102501 0
-0.115894 0.0735646 0
-0.116364 0.0439714 0
-0.117093 0.0137421 0
-0.118255 -0.017103 0
-0.119738 -0.0485393 0
-0.121431 -0.080542 0
-0.122893 -0.112801 0
-0.12368 -0.145004 0
-0.123003 -0.176117 0
-0.120077 -0.205104 0
-0.113941 -0.229613 0
-0.103635 -0.247296 0
-0.0891382 -0.254395 0
-0.0704282 -0.247157 0
-0.0492097 -0.221321 0
-0.0271875 -0.172629 0
-0.00917862 -0.099412 0
0 0 0
0 0 0
-0.00826859 0.0991863 0
-0.0238203 0.170222 0
-0.0420812 0.216263 0
-0.0584772 0.240464 0
-0.0719785 0.247554 0
-0.0815555 0.242262 0
-0.0873825 0.227856 0
-0.0896338 0.207604 0
-0.0893507 0.183419 0
-0.0875747 0.157215 0
-0.0850055 0.12968 0
-0.0823429 0.101505 0
-0.0800853 0.0728451 0
-0.078731 0.043859 0
-0.0784823 0.0144295 0
-0.0795414 -0.0155606 0
-0.0818397 -0.0462463 0
-0.0853086 -0.0777629 0
-0.0894941 -0.109975 0
-0.0939422 -0.142746 0
-0.0978063 -0.175282 0
-0.10024 -0.206787 0
-0.0997989 -0.234831 0
-0.0950407 -0.256983 0
-0.0854142 -0.268842 0
-0.0703682 -0.266007 0
-0.0512113 -0.242594 0
-0.0292517 -0.19272 0
-0.0102582 -0.112987 0
0 0 0
0 0 0
-0.00976861 0.111834 0
-0.0252456 0.187371 0
-0.042108 0.232771 0
-0.0560333 0.254195 0
-0.0655978 0.257152 0
-0.0693783 0.247151 0
-0.0685503 0.228457 0
-0.0642896 0.205332 0
-0.0578798 0.179424 0
-0.0506044 0.152379 0
-0.0432853 0.124785 0
-0.0367443 0.0972309 0
-0.0314955 0.0697055 0
-0.0280534 0.0421989 0
-0.026636 0.014468 0
-0.0274616 -0.0137308 0
-0.0305115 -0.0426812 0
-0.0357671 -0.0726673 0
-0.0428359 -0.103784 0
-0.0513254 -0.136128 0
-0.060361 -0.169132 0
-0.0690682 -0.202229 0
-0.0757673 -0.233416 0
-0.0787788 -0.260692 0
-0.076289 -0.278525 0
-0.0664845 -0.281387 0
-0.0508063 -0.262071 0
-0.0306958 -0.213374 0
-0.0118584 -0.128336 0
0 0 0
0 0 0
-0.0107014 0.124829 0
-0.0259308 0.203769 0
-0.0405889 0.246562 0
-0.0495761 0.262947 0
-0.0521758 0.25993 0
-0.0476709 0.244518 0
-0.0382509 0.221614 0
-0.0261049 0.196121 0
-0.0126449 0.169259 0
0.000717186 0.142248 0
0.0131238 0.115521 0
0.0237173 0.0895144 0
0.0320387 0.0640395 0
0.0376288 0.0389095 0
0.0402793 0.0137755 0
0.0397815 -0.0117108 0
0.0361015 -0.0379531 0
0.0292053 -0.0653552 0
0.0193584 -0.0942411 0
0.00682636 -0.124935 0
-0.00759707 -0.15714 0
-0.0231182 -0.19056 0
-0.0380322 -0.223847 0
-0.0506343 -0.255651 0
-0.0579159 -0.279846 0
-0.0568688 -0.290301 0
-0.0477659 -0.27771 0
-0.03088 -0.232766 0
-0.0127713 -0.144014 0
0 0 0
0 0 0
-0.00989699 0.136838 0
-0.0254697 0.217966 0
-0.0377581 0.25619 0
-0.0378019 0.264314 0
-0.0284551 0.252696 0
-0.0125718 0.231693 0
0.00729654 0.205613 0
0.0285985 0.178762 0
0.0498433 0.152012 0
0.06954 0.126235 0
0.086985 0.101579 0
0.101475 0.0781896 0
0.112681 0.0557414 0
0.120275 0.033909 0
0.124097 0.0122702 0
0.123985 -0.00959743 0
0.119854 -0.0321707 0
0.111621 -0.0559265 0
0.0993649 -0.0813556 0
0.0831681 -0.108949 0
0.063556 -0.138777 0
0.0410547 -0.170911 0
0.01722 -0.204599 0
-0.00639242 -0.23909 0
-0.0264483 -0.269202 0
-0.0396133 -0.289756 0
-0.0418609 -0.287472 0
-0.0291645 -0.249071 0
-0.0117892 -0.158573 0
0 0 0
0 0 0
-0.00915867 0.150506 0
-0.0202711 0.228635 0
-0.023617 0.255671 0
-0.00947595 0.252897 0
0.0154835 0.232658 0
0.0445926 0.207299 0
0.0754944 0.179847 0
0.105832 0.153327 0
0.134272 0.128244 0
0.159482 0.105105 0
0.181066 0.0837337 0
0.198627 0.063958 0
0.212026 0.0453702 0
0.221126 0.0275632 0
0.225839 0.0100889 0
0.22608 -0.0075009 0
0.221724 -0.0257003 0
0.212646 -0.0450032 0
0.198724 -0.065977 0
0.179839 -0.0891892 0
0.156121 -0.115071 0
0.127699 -0.144055 0
0.0957232 -0.17593 0
0.0613414 -0.210485 0
0.0273908 -0.244355 0
-0.00329115 -0.274178 0
-0.0222924 -0.284475 0
-0.021201 -0.25977 0
-0.0103318 -0.173725 0
0 0 0
0 0 0
-0.0102896 0.168478 0
-0.0067437 0.234451 0
0.0118331 0.239022 0
0.0466361 0.223296 0
0.0895591 0.197024 0
0.132496 0.169956 0
0.173745 0.143707 0
0.211606 0.119889 0
0.245328 0.09852 0
0.274161 0.0796189 0
0.298134 0.0627607 0
0.317274 0.0475213 0
0.331672 0.0334854 0
0.341421 0.0202378 0
0.346528 0.00736886 0
0.346999 -0.00553125 0
0.342688 -0.018908 0
0.333447 -0.0332069 0
0.318977 -0.0489539 0
0.298979 -0.0666751 0
0.273119 -0.0870527 0
0.241063 -0.110769 0
0.203211 -0.138098 0
0.159962 -0.169315 0
0.112878 -0.203064 0
0.0635245 -0.237991 0
0.0217385 -0.261837 0
-0.002641 -0.262345 0
-0.00981893 -0.191178 0
0 0 0
0 0 0
0.0118485 0.164914 0
0.0463757 0.213111 0
0.0958557 0.198442 0
0.152562 0.174755 0
0.210383 0.147752 0
0.263205 0.123136 0
0.310462 0.101259 0
0.351585 0.082476 0
0.386662 0.0664586 0
0.415782 0.0528801 0
0.439384 0.0411995 0
0.457908 0.0308758 0
0.471644 0.0215608 0
0.480883 0.0129063 0
0.485714 0.0045911 0
0.486227 -0.00370594 0
0.482271 -0.0123309 0
0.473698 -0.02163 0
0.460094 -0.0320019 0
0.44105 -0.0438458 0
0.41585 -0.0579158 0
0.383778 -0.0749664 0
0.344339 -0.0955307 0
0.297035 -0.120142 0
0.241773 -0.149065 0
0.178462 -0.182565 0
0.114222 -0.213507 0
0.0561742 -0.234753 0
0.0146552 -0.184264 0
0 0 0
2.77334e-30 0 0
0.082394 0.113974 0
0.17035 0.142315 0
0.255714 0.126128 0
0.330331 0.106516 0
0.394566 0.0868024 0
0.448788 0.0703104 0
0.494056 0.0565715 0
0.531433 0.0451172 0
0.561928 0.0356794 0
0.586551 0.0279901 0
0.606013 0.0215894 0
0.621024 0.0160178 0
0.631968 0.0110702 0
0.639231 0.0065421 0
0.642946 0.00223674 0
0.643245 -0.00204239 0
0.639998 -0.00650594 0
0.633071 -0.0113646 0
0.622049 -0.0168365 0
0.606516 -0.0231401 0
0.585612 -0.0308556 0
0.558476 -0.0405633 0
0.523763 -0.0526559 0
0.480128 -0.0675262 0
0.425834 -0.0860917 0
0.359149 -0.10927 0
0.279146 -0.133432 0
0.184904 -0.15495 0
0.0879963 -0.126311 0
2.77334e-30 0 0
0.25 0 0
0.35917 0.0481663 0
0.457464 0.0589743 0
0.540674 0.050506 0
0.604593 0.0408435 0
0.653856 0.0317074 0
0.6931 0.0248187 0
0.724059 0.0195245 0
0.748466 0.0151719 0
0.767562 0.0116905 0
0.782585 0.00900972 0
0.794168 0.00687483 0
0.802946 0.00503117 0
0.809227 0.00341594 0
0.81332 0.00196632 0
0.815337 0.000606221 0
0.815391 -0.000740468 0
0.813397 -0.002155 0
0.80927 -0.00371862 0
0.802724 -0.00549135 0
0.793469 -0.00753321 0
0.780848 -0.0101308 0
0.764202 -0.0135707 0
0.742108 -0.0179776 0
0.713147 -0.0234764 0
0.675198 -0.0308389 0
0.626142 -0.0408372 0
0.559932 -0.0521008 0
0.470521 -0.0632591 0
0.364885 -0.0529972 0
0.25 0 0
1 0 0
1 0 0
1 0 0
1 0 0
1 0 0
1 0 0
1 0 0
1 0 0
1 0 0
1 0 0
1 0 0
1 0 0
1 0 0
1 0 0
1 0 0
1 0 0
1 0 0
1 0 0
1 0 0
1 0 0
1 0 0
1 0 0
1 0 0
1 0 0
1 0 0
1 0 0
1 0 0
1 0 0
1 0 0
1 0 0
1 0 0
      </DataArray> 
      <DataArray type="Float64" NumberOfComponents="3" Name="Real Velocity" format="ascii">
0 0 0
0 0 0
0 0 0
0 0 0