<?xml version="1.0"?>
<VTKFile type="UnstructuredGrid">
  <UnstructuredGrid>
  <Piece NumberOfPoints="961"  NumberOfCells="225">
    <Points>
      <DataArray type="Float64" NumberOfComponents="3" format="ascii">
0 0 0
0.0333333 0 0
0.0666667 0 0
0.1 0 0
0.133333 0 0
0.166667 0 0
0.2 0 0
0.233333 0 0
0.266667 0 0
0.3 0 0
0.333333 0 0
0.366667 0 0
0.4 0 0
0.433333 0 0
0.466667 0 0
0.5 0 0
0.533333 0 0
0.566667 0 0
0.6 0 0
0.633333 0 0
0.666667 0 0
0.7 0 0
0.733333 0 0
0.766667 0 0
0.8 0 0
0.833333 0 0
0.866667 0 0
0.9 0 0
0.933333 0 0
0.966667 0 0
1 0 0
0 0.0333333 0
0.0333333 0.0333333 0
0.0666667 0.0333333 0
0.1 0.0333333 0
0.133333 0.0333333 0
0.166667 0.0333333 0
0.2 0.0333333 0
0.233333 0.0333333 0
0.266667 0.0333333 0
0.3 0.0333333 0
0.333333 0.0333333 0
0.366667 0.0333333 0
0.4 0.0333333 0
0.433333 0.0333333 0
0.466667 0.0333333 0
0.5 0.0333333 0
0.533333 0.0333333 0
0.566667 0.0333333 0
0.6 0.0333333 0
0.633333 0.0333333 0
0.666667 0.0333333 0
0.7 0.0333333 0
0.733333 0.0333333 0
0.766667 0.0333333 0
0.8 0.0333333 0
0.833333 0.0333333 0
0.866667 0.0333333 0
0.9 0.0333333 0
0.933333 0.0333333 0
0.966667 0.0333333 0
1 0.0333333 0
0 0.0666667 0
0.0333333 0.0666667 0
0.0666667 0.0666667 0
0.1 0.0666667 0
0.133333 0.0666667 0
0.166667 0.0666667 0
0.2 0.0666667 0
0.233333 0.0666667 0
0.266667 0.0666667 0
0.3 0.0666667 0
0.333333 0.0666667 0
0.366667 0.0666667 0
0.4 0.0666667 0
0.433333 0.0666667 0
0.466667 0.0666667 0
0.5 0.0666667 0
0.533333 0.0666667 0
0.566667 0.0666667 0
0.6 0.0666667 0
0.633333 0.0666667 0
0.666667 0.0666667 0
0.7 0.0666667 0
0.733333 0.0666667 0
0.766667 0.0666667 0
0.8 0.0666667 0
0.833333 0.0666667 0
0.866667 0.0666667 0
0.9 0.0666667 0
0.933333 0.0666667 0
0.966667 0.0666667 0
1 0.0666667 0
0 0.1 0
0.0333333 0.1 0
0.0666667 0.1 0
0.1 0.1 0
0.133333 0.1 0
0.166667 0.1 0
0.2 0.1 0
0.233333 0.1 0
0.266667 0.1 0
0.3 0.1 0
0.333333 0.1 0
0.366667 0.1 0
0.4 0.1 0
0.433333 0.1 0
0.466667 0.1 0
0.5 0.1 0
0.533333 0.1 0
0.566667 0.1 0
0.6 0.1 0
0.633333 0.1 0
0.666667 0.1 0
0.7 0.1 0
0.733333 0.1 0
0.766667 0.1 0
0.8 0.1 0
0.833333 0.1 0
0.866667 0.1 0
0.9 0.1 0
0.933333 0.1 0
0.966667 0.1 0
1 0.1 0
0 0.133333 0
0.0333333 0.133333 0
0.0666667 0.133333 0
0.1 0.133333 0
0.133333 0.133333 0
0.166667 0.133333 0
0.2 0.133333 0
0.233333 0.133333 0
0.266667 0.133333 0
0.3 0.133333 0
0.333333 0.133333 0
0.366667 0.133333 0
0.4 0.133333 0
0.433333 0.133333 0
0.466667 0.133333 0
0.5 0.133333 0
0.533333 0.133333 0
0.566667 0.133333 0
0.6 0.133333 0
0.633333 0.133333 0
0.666667 0.133333 0
0.7 0.133333 0
0.733333 0.133333 0
0.766667 0.133333 0
0.8 0.133333 0
0.833333 0.133333 0
0.866667 0.133333 0
0.9 0.133333 0
0.933333 0.133333 0
0.966667 0.133333 0
1 0.133333 0
0 0.166667 0
0.0333333 0.166667 0
0.0666667 0.166667 0
0.1 0.166667 0
0.133333 0.166667 0
0.166667 0.166667 0
0.2 0.166667 0
0.233333 0.166667 0
0.266667 0.166667 0
0.3 0.166667 0
0.333333 0.166667 0
0.366667 0.166667 0
0.4 0.166667 0
0.433333 0.166667 0
0.466667 0.166667 0
0.5 0.166667 0
0.533333 0.166667 0
0.566667 0.166667 0
0.6 0.166667 0
0.633333 0.166667 0
0.666667 0.166667 0
0.7 0.166667 0
0.733333 0.166667 0
0.766667 0.166667 0
0.8 0.166667 0
0.833333 0.166667 0
0.866667 0.166667 0
0.9 0.166667 0
0.933333 0.166667 0
0.966667 0.166667 0
1 0.166667 0
0 0.2 0
0.0333333 0.2 0
0.0666667 0.2 0
0.1 0.2 0
0.133333 0.2 0
0.166667 0.2 0
0.2 0.2 0
0.233333 0.2 0
0.266667 0.2 0
0.3 0.2 0
0.333333 0.2 0
0.366667 0.2 0
0.4 0.2 0
0.433333 0.2 0
0.466667 0.2 0
0.5 0.2 0
0.533333 0.2 0
0.566667 0.2 0
0.6 0.2 0
0.633333 0.2 0
0.666667 0.2 0
0.7 0.2 0
0.733333 0.2 0
0.766667 0.2 0
0.8 0.2 0
0.833333 0.2 0
0.866667 0.2 0
0.9 0.2 0
0.933333 0.2 0
0.966667 0.2 0
1 0.2 0
0 0.233333 0
0.0333333 0.233333 0
0.0666667 0.233333 0
0.1 0.233333 0
0.133333 0.233333 0
0.166667 0.233333 0
0.2 0.233333 0
0.233333 0.233333 0
0.266667 0.233333 0
0.3 0.233333 0
0.333333 0.233333 0
0.366667 0.233333 0
0.4 0.233333 0
0.433333 0.233333 0
0.466667 0.233333 0
0.5 0.233333 0
0.533333 0.233333 0
0.566667 0.233333 0
0.6 0.233333 0
0.633333 0.233333 0
0.666667 0.233333 0
0.7 0.233333 0
0.733333 0.233333 0
0.766667 0.233333 0
0.8 0.233333 0
0.833333 0.233333 0
0.866667 0.233333 0
0.9 0.233333 0
0.933333 0.233333 0
0.966667 0.233333 0
1 0.233333 0
0 0.266667 0
0.0333333 0.266667 0
0.0666667 0.266667 0
0.1 0.266667 0
0.133333 0.266667 0
0.166667 0.266667 0
0.2 0.266667 0
0.233333 0.266667 0
0.266667 0.266667 0
0.3 0.266667 0
0.333333 0.266667 0
0.366667 0.266667 0
0.4 0.266667 0
0.433333 0.266667 0
0.466667 0.266667 0
0.5 0.266667 0
0.533333 0.266667 0
0.566667 0.266667 0
0.6 0.266667 0
0.633333 0.266667 0
0.666667 0.266667 0
0.7 0.266667 0
0.733333 0.266667 0
0.766667 0.266667 0
0.8 0.266667 0
0.833333 0.266667 0
0.866667 0.266667 0
0.9 0.266667 0
0.933333 0.266667 0
0.966667 0.266667 0
1 0.266667 0
0 0.3 0
0.0333333 0.3 0
0.0666667 0.3 0
0.1 0.3 0
0.133333 0.3 0
0.166667 0.3 0
0.2 0.3 0
0.233333 0.3 0
0.266667 0.3 0
0.3 0.3 0
0.333333 0.3 0
0.366667 0.3 0
0.4 0.3 0
0.433333 0.3 0
0.466667 0.3 0
0.5 0.3 0
0.533333 0.3 0
0.566667 0.3 0
0.6 0.3 0
0.633333 0.3 0
0.666667 0.3 0
0.7 0.3 0
0.733333 0.3 0
0.766667 0.3 0
0.8 0.3 0
0.833333 0.3 0
0.866667 0.3 0
0.9 0.3 0
0.933333 0.3 0
0.966667 0.3 0
1 0.3 0
0 0.333333 0
0.0333333 0.333333 0
0.0666667 0.333333 0
0.1 0.333333 0
0.133333 0.333333 0
0.166667 0.333333 0
0.2 0.333333 0
0.233333 0.333333 0
0.266667 0.333333 0
0.3 0.333333 0
0.333333 0.333333 0
0.366667 0.333333 0
0.4 0.333333 0
0.433333 0.333333 0
0.466667 0.333333 0
0.5 0.333333 0
0.533333 0.333333 0
0.566667 0.333333 0
0.6 0.333333 0
0.633333 0.333333 0
0.666667 0.333333 0
0.7 0.333333 0
0.733333 0.333333 0
0.766667 0.333333 0
0.8 0.333333 0
0.833333 0.333333 0
0.866667 0.333333 0
0.9 0.333333 0
0.933333 0.333333 0
0.966667 0.333333 0
1 0.333333 0
0 0.366667 0
0.0333333 0.366667 0
0.0666667 0.366667 0
0.1 0.366667 0
0.133333 0.366667 0
0.166667 0.366667 0
0.2 0.366667 0
0.233333 0.366667 0
0.266667 0.366667 0
0.3 0.366667 0
0.333333 0.366667 0
0.366667 0.366667 0
0.4 0.366667 0
0.433333 0.366667 0
0.466667 0.366667 0
0.5 0.366667 0
0.533333 0.366667 0
0.566667 0.366667 0
0.6 0.366667 0
0.633333 0.366667 0
0.666667 0.366667 0
0.7 0.366667 0
0.733333 0.366667 0
0.766667 0.366667 0
0.8 0.366667 0
0.833333 0.366667 0
0.866667 0.366667 0
0.9 0.366667 0
0.933333 0.366667 0
0.966667 0.366667 0
1 0.366667 0
0 0.4 0
0.0333333 0.4 0
0.0666667 0.4 0
0.1 0.4 0
0.133333 0.4 0
0.166667 0.4 0
0.2 0.4 0
0.233333 0.4 0
0.266667 0.4 0
0.3 0.4 0
0.333333 0.4 0
0.366667 0.4 0
0.4 0.4 0
0.433333 0.4 0
0.466667 0.4 0
0.5 0.4 0
0.533333 0.4 0
0.566667 0.4 0
0.6 0.4 0
0.633333 0.4 0
0.666667 0.4 0
0.7 0.4 0
0.733333 0.4 0
0.766667 0.4 0
0.8 0.4 0
0.833333 0.4 0
0.866667 0.4 0
0.9 0.4 0
0.933333 0.4 0
0.966667 0.4 0
1 0.4 0
0 0.433333 0
0.0333333 0.433333 0
0.0666667 0.433333 0
0.1 0.433333 0
0.133333 0.433333 0
0.166667 0.433333 0
0.2 0.433333 0
0.233333 0.433333 0
0.266667 0.433333 0
0.3 0.433333 0
0.333333 0.433333 0
0.366667 0.433333 0
0.4 0.433333 0
0.433333 0.433333 0
0.466667 0.433333 0
0.5 0.433333 0
0.533333 0.433333 0
0.566667 0.433333 0
0.6 0.433333 0
0.633333 0.433333 0
0.666667 0.433333 0
0.7 0.433333 0
0.733333 0.433333 0
0.766667 0.433333 0
0.8 0.433333 0
0.833333 0.433333 0
0.866667 0.433333 0
0.9 0.433333 0
0.933333 0.433333 0
0.966667 0.433333 0
1 0.433333 0
0 0.466667 0
0.0333333 0.466667 0
0.0666667 0.466667 0
0.1 0.466667 0
0.133333 0.466667 0
0.166667 0.466667 0
0.2 0.466667 0
0.233333 0.466667 0
0.266667 0.466667 0
0.3 0.466667 0
0.333333 0.466667 0
0.366667 0.466667 0
0.4 0.466667 0
0.433333 0.466667 0
0.466667 0.466667 0
0.5 0.466667 0
0.533333 0.466667 0
0.566667 0.466667 0
0.6 0.466667 0
0.633333 0.466667 0
0.666667 0.466667 0
0.7 0.466667 0
0.733333 0.466667 0
0.766667 0.466667 0
0.8 0.466667 0
0.833333 0.466667 0
0.866667 0.466667 0
0.9 0.466667 0
0.933333 0.466667 0
0.966667 0.466667 0
1 0.466667 0
0 0.5 0
0.0333333 0.5 0
0.0666667 0.5 0
0.1 0.5 0
0.133333 0.5 0
0.166667 0.5 0
0.2 0.5 0
0.233333 0.5 0
0.266667 0.5 0
0.3 0.5 0
0.333333 0.5 0
0.366667 0.5 0
0.4 0.5 0
0.433333 0.5 0
0.466667 0.5 0
0.5 0.5 0
0.533333 0.5 0
0.566667 0.5 0
0.6 0.5 0
0.633333 0.5 0
0.666667 0.5 0
0.7 0.5 0
0.733333 0.5 0
0.766667 0.5 0
0.8 0.5 0
0.833333 0.5 0
0.866667 0.5 0
0.9 0.5 0
0.933333 0.5 0
0.966667 0.5 0
1 0.5 0
0 0.533333 0
0.0333333 0.533333 0
0.0666667 0.533333 0
0.1 0.533333 0
0.133333 0.533333 0
0.166667 0.533333 0
0.2 0.533333 0
0.233333 0.533333 0
0.266667 0.533333 0
0.3 0.533333 0
0.333333 0.533333 0
0.366667 0.533333 0
0.4 0.533333 0
0.433333 0.533333 0
0.466667 0.533333 0
0.5 0.533333 0
0.533333 0.533333 0
0.566667 0.533333 0
0.6 0.533333 0
0.633333 0.533333 0
0.666667 0.533333 0
0.7 0.533333 0
0.733333 0.533333 0
0.766667 0.533333 0
0.8 0.533333 0
0.833333 0.533333 0
0.866667 0.533333 0
0.9 0.533333 0
0.933333 0.533333 0
0.966667 0.533333 0
1 0.533333 0
0 0.566667 0
0.0333333 0.566667 0
0.0666667 0.566667 0
0.1 0.566667 0
0.133333 0.566667 0
0.166667 0.566667 0
0.2 0.566667 0
0.233333 0.566667 0
0.266667 0.566667 0
0.3 0.566667 0
0.333333 0.566667 0
0.366667 0.566667 0
0.4 0.566667 0
0.433333 0.566667 0
0.466667 0.566667 0
0.5 0.566667 0
0.533333 0.566667 0
0.566667 0.566667 0
0.6 0.566667 0
0.633333 0.566667 0
0.666667 0.566667 0
0.7 0.566667 0
0.733333 0.566667 0
0.766667 0.566667 0
0.8 0.566667 0
0.833333 0.566667 0
0.866667 0.566667 0
0.9 0.566667 0
0.933333 0.566667 0
0.966667 0.566667 0
1 0.566667 0
0 0.6 0
0.0333333 0.6 0
0.0666667 0.6 0
0.1 0.6 0
0.133333 0.6 0
0.166667 0.6 0
0.2 0.6 0
0.233333 0.6 0
0.266667 0.6 0
0.3 0.6 0
0.333333 0.6 0
0.366667 0.6 0
0.4 0.6 0
0.433333 0.6 0
0.466667 0.6 0
0.5 0.6 0
0.533333 0.6 0
0.566667 0.6 0
0.6 0.6 0
0.633333 0.6 0
0.666667 0.6 0
0.7 0.6 0
0.733333 0.6 0
0.766667 0.6 0
0.8 0.6 0
0.833333 0.6 0
0.866667 0.6 0
0.9 0.6 0
0.933333 0.6 0
0.966667 0.6 0
1 0.6 0
0 0.633333 0
0.0333333 0.633333 0
0.0666667 0.633333 0
0.1 0.633333 0
0.133333 0.633333 0
0.166667 0.633333 0
0.2 0.633333 0
0.233333 0.633333 0
0.266667 0.633333 0
[...]
    <PointData>
      <DataArray type="Float64" NumberOfComponents="3" Name="Velocity" format="ascii">
0 0 0
0 0 0
0 0 0
0 0 0
0 0 0
0 0 0
0 0 0
0 0 0
0 0 0
0 0 0
0 0 0
0 0 0
0 0 0
0 0 0
0 0 0
0 0 0
0 0 0
0 0 0
0 0 0
0 0 0
0 0 0
0 0 0
0 0 0
0 0 0
0 0 0
0 0 0
0 0 0
0 0 0
0 0 0
0 0 0
0 0 0
0 0 0
0.0967281 -0.00601119 0
0.133869 -0.00641395 0
0.140224 -0.00441824 0
0.144598 -0.00323403 0
0.147857 -0.00256897 0
0.150868 -0.0021307 0
0.153506 -0.00181918 0
0.155649 -0.00153436 0
0.157498 -0.0012979 0
0.159256 -0.00113146 0
0.160766 -0.000969226 0
0.161868 -0.000745393 0
0.162666 -0.000504334 0
0.163264 -0.000290426 0
0.163558 -8.37828e-05 0
0.163446 0.00013548 0
0.163018 0.000368825 0
0.162365 0.000617714 0
0.161392 0.000855877 0
0.160003 0.00105705 0
0.158343 0.00125099 0
0.156558 0.00146749 0
0.154441 0.0017486 0
0.151783 0.00213638 0
0.148648 0.00264408 0
0.145097 0.00328494 0
0.140325 0.00443471 0
0.133525 0.00646916 0
0.0962364 0.00609026 0
0 0 0
0 0 0
0.125919 -0.0111203 0
0.172219 -0.0127302 0
0.178261 -0.00997341 0
0.183402 -0.00799392 0
0.18783 -0.00656887 0
0.191729 -0.00547544 0
0.195201 -0.00469738 0
0.198346 -0.00421848 0
0.201141 -0.0038105 0
0.203567 -0.00324525 0
0.205638 -0.00262368 0
0.207372 -0.00204675 0
0.208696 -0.0014664 0
0.20954 -0.000834554 0
0.209923 -0.000171892 0
0.209865 0.000500921 0
0.209331 0.00115532 0
0.208286 0.00176273 0
0.206781 0.0023697 0
0.204867 0.00302276 0
0.202535 0.00362884 0
0.199776 0.00409485 0
0.196596 0.00465125 0
0.193004 0.00552848 0
0.188957 0.00675348 0
0.184417 0.00835316 0
0.178989 0.0103703 0
0.17228 0.0128475 0
0.125534 0.0109893 0
0 0 0
0 0 0
0.123185 -0.0143237 0
0.166297 -0.0177236 0
0.16976 -0.0155671 0
0.173995 -0.013221 0
0.178391 -0.0110609 0
0.182338 -0.00946197 0
0.185985 -0.00831695 0
0.189485 -0.00751851 0
0.192649 -0.00677321 0
0.195292 -0.00578756 0
0.197545 -0.00471245 0
0.199542 -0.00369875 0
0.201099 -0.00266322 0
0.202032 -0.00152263 0
0.202446 -0.000321905 0
0.202443 0.000894021 0
0.201902 0.00207989 0
0.200703 0.00319043 0
0.198986 0.00428909 0
0.196896 0.00543931 0
0.194335 0.00651714 0
0.191206 0.00739864 0
0.18766 0.00833936 0
0.183846 0.00959481 0
0.179766 0.0113574 0
0.175418 0.0138196 0
0.171009 0.0163036 0
0.166744 0.0181317 0
0.122962 0.0143488 0
0 0 0
0 0 0
0.124141 -0.0146174 0
0.167349 -0.0201693 0
0.170372 -0.0201008 0
0.173958 -0.0178568 0
0.178014 -0.0151062 0
0.182448 -0.013518 0
0.186763 -0.0123602 0
0.190461 -0.0109006 0
0.193739 -0.00942138 0
0.196791 -0.00820455 0
0.199416 -0.00698462 0
0.201409 -0.00549607 0
0.202882 -0.00387185 0
0.203945 -0.0022449 0
0.204479 -0.000591396 0
0.204368 0.00111247 0
0.203697 0.00286293 0
0.202555 0.00465617 0
0.200826 0.00636165 0
0.198395 0.00784883 0
0.195506 0.00929949 0
0.192404 0.0108954 0
0.188822 0.0124443 0
0.184495 0.0137539 0
0.179911 0.0154851 0
0.17556 0.0182991 0
0.171402 0.0207316 0
0.167399 0.0213183 0
0.123587 0.0158206 0
0 0 0
0 0 0
0.125888 -0.0152942 0
0.170347 -0.0222781 0
0.174109 -0.0236496 0
0.177907 -0.0221062 0
0.182136 -0.0195575 0
0.187193 -0.017913 0
0.19218 -0.0164679 0
0.1962 -0.0145174 0
0.199678 -0.0125011 0
0.203038 -0.0108587 0
0.205897 -0.00921628 0
0.207869 -0.00719996 0
0.209268 -0.00501644 0
0.210408 -0.00287241 0
0.211034 -0.000706462 0
0.21089 0.0015428 0
0.210186 0.00387935 0
0.209128 0.00630713 0
0.20742 0.00863015 0
0.204762 0.0106524 0
0.201599 0.0125951 0
0.198376 0.0146792 0
0.194595 0.0166964 0
0.18976 0.0184381 0
0.184603 0.0203751 0
0.17986 0.0229778 0
0.175214 0.0247554 0
0.170349 0.0242167 0
0.125275 0.0173141 0
0 0 0
0 0 0
0.125528 -0.0196466 0
0.170264 -0.026261 0
0.174982 -0.0262885 0
0.180456 -0.0261744 0
0.186195 -0.0252674 0
0.191706 -0.0229162 0
0.196885 -0.0202808 0
0.201627 -0.0185215 0
0.205733 -0.0167586 0
0.209004 -0.0141126 0
0.211634 -0.0111835 0
0.213817 -0.00857168 0
0.215481 -0.00602119 0
0.216553 -0.00327623 0
0.217119 -0.000393194 0
0.217263 0.00257153 0
0.216841 0.00550405 0
0.215709 0.00829049 0
0.213886 0.0111373 0
0.211394 0.0142511 0
0.208164 0.017023 0
0.20413 0.0188441 0
0.199492 0.020826 0
0.194451 0.0240802 0
0.189051 0.0272656 0
0.183336 0.0290416 0
0.177491 0.0294758 0
0.1717 0.0286362 0
0.125892 0.0207389 0
0 0 0
0 0 0
0.125399 -0.0233098 0
0.171016 -0.031039 0
0.177341 -0.0311945 0
0.184859 -0.0317833 0
0.1925 -0.0313324 0
0.199191 -0.0283689 0
0.205177 -0.0247965 0
0.2107 -0.0225189 0
0.215268 -0.0202382 0
0.218384 -0.0166567 0
0.220731 -0.0127968 0
0.22299 -0.00968097 0
0.224836 -0.00676773 0
0.225943 -0.00351546 0
0.22656 -3.05615e-05 0
0.226935 0.00358055 0
0.226719 0.00713361 0
0.225561 0.0104443 0
0.223654 0.0139579 0
0.22119 0.0181195 0
0.217761 0.0218351 0
0.212957 0.0240106 0
0.207405 0.0263091 0
0.201732 0.0303935 0
0.195785 0.0343134 0
0.189412 0.0361187 0
0.182372 0.0363378 0
0.174424 0.0354995 0
0.126618 0.025941 0
0 0 0
0 0 0
0.127836 -0.0219187 0
0.176519 -0.0355331 0
0.185535 -0.0415448 0
0.194371 -0.0406549 0
0.203364 -0.036849 0
0.212852 -0.0341127 0
0.221351 -0.0310126 0
0.227379 -0.0261156 0
0.231648 -0.0209843 0
0.234874 -0.0171816 0
0.237289 -0.0139663 0
0.239125 -0.0105976 0
0.240652 -0.00713773 0
0.242143 -0.00364921 0
0.243183 2.46962e-06 0
0.243355 0.00395178 0
0.242873 0.0081646 0
0.24195 0.0126068 0
0.240153 0.0171665 0
0.237052 0.0217321 0
0.23295 0.026283 0
0.228148 0.0307992 0
0.222227 0.0346216 0
0.214766 0.0370917 0
0.207336 0.039675 0
0.201508 0.0438373 0
0.193991 0.0467862 0
0.181496 0.0457291 0
0.12863 0.0327667 0
0 0 0
0 0 0
0.130275 -0.0258748 0
0.179338 -0.0406187 0
0.187535 -0.0468852 0
0.195211 -0.0473276 0
0.203993 -0.0443471 0
0.215508 -0.0403446 0
0.225847 -0.034862 0
0.231102 -0.027441 0
0.233823 -0.0203418 0
0.236563 -0.0158247 0
0.238829 -0.0124442 0
0.240132 -0.00875512 0
0.241238 -0.00489289 0
0.242916 -0.00099298 0
0.24427 0.00313971 0
0.244406 0.00770028 0
0.243978 0.0126648 0
0.24364 0.0180095 0
0.242306 0.023596 0
0.23889 0.0292859 0
0.23469 0.0349958 0
0.231003 0.0406422 0
0.225596 0.0456684 0
0.216239 0.0495174 0
0.207548 0.0522336 0
0.204143 0.0538614 0
0.199732 0.0563847 0
0.188024 0.0617876 0
0.133339 0.049762 0
0 0 0
0 0 0
0.130153 -0.0455798 0
0.172041 -0.047171 0
0.171308 -0.0367617 0
0.173598 -0.0463399 0
0.179594 -0.0563564 0
0.18998 -0.0472618 0
0.199103 -0.0322774 0
0.201311 -0.0246246 0
0.200742 -0.0196557 0
0.201537 -0.0127234 0
0.202872 -0.00598229 0
0.203923 -0.0015872 0
0.204902 0.00220508 0
0.206022 0.00713772 0
0.207105 0.012815 0
0.207971 0.0188411 0
0.208707 0.0247021 0
0.209398 0.0298842 0
0.209037 0.0360789 0
0.206616 0.044978 0
0.203941 0.0526023 0
0.202819 0.0549724 0
0.19915 0.0593541 0
0.188833 0.0730134 0
0.180262 0.0808727 0
0.181834 0.0678547 0
0.186975 0.0606971 0
0.189114 0.0861376 0
0.142154 0.085473 0
0 0 0
0 0 0
0.119129 -0.0514291 0
0.155516 -0.0376612 0
0.151612 -0.0129329 0
0.149872 -0.031481 0
0.15155 -0.0544969 0
0.157905 -0.0431718 0
0.163364 -0.0224741 0
0.162358 -0.017372 0
0.159105 -0.0165738 0
0.157827 -0.00878763 0
0.157853 7.21195e-05 0
0.158515 0.00409109 0
0.159272 0.00676473 0
0.159583 0.0115885 0
0.160129 0.0175315 0
0.161595 0.0235628 0
0.163335 0.0287814 0
0.164704 0.0322861 0
0.165285 0.0374036 0
0.164664 0.0474607 0
0.164299 0.0551129 0
0.165653 0.0530155 0
0.164126 0.0551936 0
0.155121 0.0756722 0
0.148801 0.0868225 0
0.15533 0.0610159 0
0.167524 0.043684 0
0.178203 0.0802586 0
0.138612 0.0919579 0
0 0 0
0 0 0
0.0888654 -0.0138183 0
0.130652 0.00543948 0
0.143206 0.0228425 0
0.144372 0.00345995 0
0.141245 -0.0203882 0
0.14092 -0.0163821 0
0.140877 -0.00466725 0
0.138596 -0.00538914 0
0.135613 -0.00874381 0
0.133461 -0.00492729 0
0.13221 0.000371753 0
0.131929 0.00146465 0
0.131977 0.00139463 0
0.131716 0.00320494 0
0.131784 0.00579247 0
0.132823 0.00805414 0
0.134139 0.00940756 0
0.135037 0.00927038 0
0.13599 0.0103581 0
0.137468 0.0153861 0
0.139361 0.0185381 0
0.141559 0.0139976 0
0.141764 0.0127015 0
0.137677 0.0255865 0
0.136487 0.0313135 0
0.145379 0.0085434 0
0.153182 -0.0106943 0
0.148724 0.00562982 0
0.10625 0.0212749 0
0 0 0
0 0 0
0.0662452 0.0336872 0
0.115043 0.0474589 0
0.142889 0.0455942 0
0.146283 0.0323723 0
0.13832 0.0178514 0
0.1321 0.0120898 0
0.127552 0.00965469 0
0.124605 0.00511344 0
0.122266 0.00109232 0
0.119541 0.000217627 0
0.117164 0.000156436 0
0.115869 -0.00142419 0
0.115125 -0.00343438 0
0.114401 -0.00478423 0
0.114044 -0.00607741 0
0.114406 -0.00791758 0
0.114992 -0.0102818 0
0.115306 -0.0131469 0
0.116456 -0.0156864 0
0.119548 -0.0170734 0
0.123186 -0.018904 0
0.125974 -0.0227744 0
0.12806 -0.0262334 0
0.129592 -0.0268298 0
0.133728 -0.0297844 0
0.143626 -0.0403178 0
0.144425 -0.0540849 0
0.121261 -0.0667406 0
0.0733731 -0.0561055 0
0 0 0
0 0 0
0.0781519 0.0575216 0
0.126279 0.053725 0
0.147464 0.0303522 0
0.144788 0.0291453 0
0.132419 0.0321036 0
0.124522 0.0212261 0
0.119303 0.00900316 0
0.114965 0.00792501 0
0.111067 0.0101927 0
0.107168 0.00800712 0
0.103938 0.00466599 0
0.102045 0.00346689 0
0.100824 0.00274856 0
0.099615 0.000849725 0
0.0988829 -0.00175348 0
0.099095 -0.00458491 0
0.0997679 -0.00714897 0
0.100418 -0.00895002 0
0.101989 -0.0113586 0
0.105422 -0.0157454 0
0.109832 -0.0189953 0
0.114335 -0.0179936 0
0.119015 -0.0197221 0
0.123956 -0.0311629 0
0.130932 -0.0406013 0
0.141717 -0.0363228 0
0.14173 -0.0381348 0
0.116394 -0.0658447 0
0.0682904 -0.0697129 0
0 0 0
0 0 0
0.102418 0.0596133 0
0.145703 0.0423683 0
0.151231 0.0080198 0
0.140377 0.0163224 0
0.124925 0.0322302 0
0.116655 0.0206974 0
0.111331 0.00492274 0
0.104715 0.00810512 0
0.0981346 0.0159331 0
0.0929177 0.0140952 0
0.0890312 0.00959567 0
0.0864422 0.00943867 0
0.0846189 0.0103043 0
0.0830295 0.00887246 0
0.082115 0.0063661 0
0.0823163 0.004008 0
0.0833196 0.00246938 0
0.0848109 0.00242146 0
0.0871105 0.00126699 0
0.0905386 -0.0035913 0
0.0955186 -0.00642245 0
0.102474 -0.00149551 0
0.110186 -0.00109231 0
0.117438 -0.0174947 0
0.126017 -0.0295707 0
0.13771 -0.0161888 0
0.141315 -0.00837736 0
0.125628 -0.0371651 0
0.0815544 -0.0514174 0
0 0 0
0 0 0
0.116878 0.0418905 0
0.154658 0.0315196 0
0.148493 0.00950062 0
0.13354 0.0164468 0
0.117223 0.0280931 0
0.106966 0.020174 0
0.0988357 0.00895802 0
0.0888958 0.0107133 0
0.0795904 0.0156894 0
0.0733638 0.0141359 0
0.0689415 0.0106407 0
0.0650495 0.00979189 0
0.0620522 0.0095935 0
0.0603142 0.00804962 0
0.0595557 0.00588316 0
0.0594974 0.00381704 0
0.0604991 0.00223675 0
0.0629209 0.00152781 0
0.0663436 0.000116078 0
0.0703481 -0.00357258 0
0.0764645 -0.0058719 0
0.0862225 -0.00311561 0
0.0971326 -0.0036714 0
0.106705 -0.015907 0
0.116897 -0.0251261 0
0.129667 -0.0166327 0
0.139395 -0.0103458 0
0.140464 -0.0261846 0
0.103718 -0.0330893 0
0 0 0
0 0 0
0.122482 0.0240451 0
0.15518 0.0279145 0
0.14136 0.0244448 0
0.124289 0.0264722 0
0.10741 0.0282799 0
0.0941646 0.024151 0
0.0822634 0.0187875 0
0.0694152 0.0168912 0
0.0581433 0.0160954 0
0.0509705 0.0140334 0
0.0458838 0.0114532 0
0.0408697 0.00910295 0
0.0369334 0.00687904 0
0.0350802 0.00467778 0
0.034458 0.00245444 0
0.0342148 0.000164281 0
0.0351904 -0.00218066 0
0.0382249 -0.00456836 0
0.0425572 -0.00713157 0
0.0474265 -0.010003 0
0.054774 -0.0126081 0
0.0665412 -0.0143722 0
0.079885 -0.017387 0
0.0919621 -0.0237445 0
0.104528 -0.0292002 0
0.119338 -0.0295099 0
0.135223 -0.0281614 0
0.151016 -0.0286425 0
0.121135 -0.0221798 0
0 0 0
0 0 0
0.120179 0.0257688 0
0.149307 0.0382888 0
0.131942 0.0425023 0
0.112639 0.0433518 0
0.0935821 0.0413784 0
0.0769571 0.0371233 0
0.0620584 0.0320895 0
0.0481805 0.0277805 0
0.0365021 0.023785 0
0.0282018 0.0196919 0
0.0220723 0.015685 0
0.0169057 0.0119482 0
0.0130715 0.00842361 0
0.0109389 0.00505353 0
0.0100745 0.00173669 0
0.010045 -0.00162817 0
0.0112776 -0.00511667 0
0.0141996 -0.00880443 0
0.0186206 -0.0127961 0
0.0243499 -0.0171965 0
0.0325516 -0.0218956 0
0.0443894 -0.0267834 0
0.0584734 -0.0321666 0
0.0734134 -0.0383517 0
0.0898625 -0.0437258 0
0.108474 -0.046676 0
0.12805 -0.0459456 0
0.147395 -0.0402779 0
0.120161 -0.0261403 0
0 0 0
0 0 0
0.115535 0.0370106 0
0.141819 0.0558987 0
0.12239 0.0629084 0
0.100783 0.0642841 0
0.079202 0.0611912 0
0.0598527 0.0547952 0
0.04308 0.0472411 0
0.0292288 0.0406735 0
0.0180051 0.0343978 0
0.00911491 0.0277195 0
0.00237035 0.0214111 0
-0.00241643 0.0162453 0
-0.00570702 0.01162 0
-0.007963 0.00693338 0
-0.00905297 0.0022262 0
-0.00884553 -0.00246062 0
-0.00744612 -0.00721099 0
-0.0049602 -0.0121088 0
-0.000919844 -0.0176916 0
0.00514287 -0.0244967 0
0.0135076 -0.0319593 0
0.024454 -0.0395142 0
0.038286 -0.0475717 0
0.0553079 -0.0565424 0
0.0751648 -0.0639593 0
0.0975021 -0.067356 0
0.119632 -0.0656322 0
0.138869 -0.0576877 0
0.113046 -0.0377384 0
0 0 0
0 0 0
0.114115 0.0477193 0
0.137494 0.0740005 0
0.114854 0.0848982 0
0.0909138 0.0864672 0
0.0677306 0.0815206 0
0.04736 0.0728714 0
0.0301871 0.0626189 0
0.0165974 0.0528625 0
0.00599069 0.0435736 0
-0.00223302 0.0347241 0
-0.0083586 0.026706 0
-0.0126709 0.0199118 0
-0.0155757 0.0138611 0
-0.0174787 0.00807385 0
-0.0183827 0.00241922 0
-0.0182903 -0.0032334 0
-0.0171874 -0.00910334 0
-0.0150598 -0.0154099 0
-0.0115175 -0.0226318 0
-0.00617038 -0.0312476 0
0.00135235 -0.0410244 0
0.0114215 -0.0517293 0
0.024711 -0.063164 0
0.0418947 -0.0751302 0
0.0626987 -0.0851575 0
0.0868493 -0.0907751 0
0.111725 -0.0891549 0
0.134705 -0.0774686 0
0.112044 -0.0497418 0
0 0 0
0 0 0
0.113509 0.0600889 0
0.134383 0.094285 0
0.108878 0.108827 0
0.0832509 0.109952 0
0.0595514 0.102348 0
0.0398299 0.0907043 0
0.0238937 0.077153 0
0.0115499 0.0638278 0
0.00231988 0.0514117 0
-0.00427475 0.0405877 0
-0.00894332 0.0311365 0
-0.0123952 0.0228391 0
-0.0147239 0.0154773 0
-0.0160232 0.00883314 0
-0.0165837 0.00253143 0
-0.0166957 -0.00380309 0
-0.0160888 -0.0105518 0
-0.014492 -0.0180961 0
-0.0118008 -0.0267536 0
-0.00791009 -0.0368418 0
-0.00208605 -0.0486567 0
0.00640534 -0.0624944 0
0.0181192 -0.0775995 0
0.0336108 -0.0932165 0
0.0533338 -0.10683 0
0.0777422 -0.115926 0
0.10464 -0.115412 0
0.13183 -0.100198 0
0.112541 -0.0638666 0
0 0 0
0 0 0
0.111303 0.0763136 0
0.13054 0.118443 0
0.104009 0.135048 0
0.0780123 0.134788 0
0.0550474 0.123656 0
0.0376137 0.107647 0
0.0247136 0.089773 0
0.0153498 0.0730496 0
0.00885376 0.0580111 0
0.00455694 0.0451922 0
0.00178741 0.0342693 0
-0.000126716 0.0249184 0
-0.00134115 0.0167987 0
-0.00201158 0.00956945 0
-0.00232496 0.00277845 0
-0.00246823 -0.00402629 0
-0.00229268 -0.0113145 0
-0.00164963 -0.0195559 0
-0.000397959 -0.0291939 0
0.00160345 -0.040672 0
0.00502039 -0.0544219 0
0.0105186 -0.0708754 0
0.0188817 -0.0895347 0
0.0308931 -0.109902 0
0.0479395 -0.128488 0
0.0714073 -0.141801 0
0.0986882 -0.143304 0
0.127174 -0.126455 0
0.109924 -0.0818289 0
0 0 0
0 0 0
0.10935 0.0943424 0
0.127297 0.144089 0
0.100923 0.16125 0
0.077307 0.157832 0
0.0583058 0.141681 0
0.0457772 0.120643 0
0.0380135 0.0984475 0
0.0333069 0.0788222 0
0.0307775 0.0618182 0
0.0295454 0.0474858 0
0.0291708 0.0355333 0
0.0292142 0.0256687 0
0.0294073 0.017317 0
0.0294819 0.00990314 0
0.0294528 0.00296942 0
0.0293352 -0.00394174 0
0.0290692 -0.0113394 0
0.0285954 -0.0197325 0
0.0281249 -0.0297705 0
0.0278689 -0.0421024 0
0.0282409 -0.0571851 0
0.0296545 -0.0754754 0
0.0330926 -0.0970683 0
0.0395379 -0.122059 0
0.0511699 -0.146225 0
0.0701678 -0.165345 0
0.0946494 -0.170905 0
0.122733 -0.154395 0
0.106991 -0.102023 0
0 0 0
0 0 0
0.1095 0.112124 0
0.125991 0.168837 0
0.100297 0.185115 0
0.0832442 0.175937 0
0.0734136 0.152659 0
0.0693866 0.12664 0
0.0691602 0.101145 0
0.070731 0.0794399 0
0.0732764 0.0612793 0
0.0759739 0.0464166 0
0.078544 0.0343578 0
0.0807073 0.0246091 0
0.0823561 0.0165236 0
0.0833827 0.00945455 0
0.0838092 0.00291343 0
0.0836573 -0.00358821 0
0.0828653 -0.0105745 0
0.0813712 -0.0185697 0
0.079202 -0.0283013 0
0.076385 -0.0404971 0
0.0731447 -0.0558112 0
0.069706 -0.074898 0
0.0668458 -0.0982994 0
0.0653412 -0.126557 0
0.0676791 -0.156136 0
0.0763465 -0.183498 0
0.0933023 -0.196295 0
0.120505 -0.182175 0
0.106542 -0.122842 0
0 0 0
0 0 0
0.110279 0.131813 0
0.130701 0.190925 0
0.112893 0.20037 0
0.108482 0.183181 0
0.11245 0.152972 0
0.119779 0.123356 0
0.128686 0.0963958 0
0.137387 0.0741546 0
0.145383 0.0561598 0
0.152174 0.0419386 0
0.157697 0.0307414 0
0.161888 0.0218184 0
0.164891 0.0145497 0
0.166851 0.00831558 0
0.167753 0.00262144 0
0.167586 -0.00302719 0
0.166338 -0.00913236 0
0.164 -0.0161961 0
0.160349 -0.0249215 0
0.155162 -0.0360117 0
0.148421 -0.0503494 0
0.140109 -0.0688169 0
0.13052 -0.0922672 0
0.11995 -0.121554 0
0.110477 -0.154695 0
0.104176 -0.189711 0
0.107152 -0.211941 0
0.125508 -0.206726 0
0.107153 -0.145575 0
0 0 0
0 0 0
0.110213 0.155563 0
0.145511 0.208592 0
0.149474 0.200735 0
0.165679 0.173641 0
0.187495 0.139002 0
0.208292 0.108513 0
0.227122 0.082732 0
0.243039 0.0622181 0
0.256129 0.046225 0
0.266478 0.0340063 0
0.274422 0.0246829 0
0.280293 0.0173756 0
0.284399 0.0115266 0
0.287045 0.00657811 0
0.288294 0.00210443 0
0.288208 -0.00232019 0
0.286731 -0.00712533 0
0.283804 -0.0127406 0
0.27908 -0.0197661 0
0.27221 -0.0288022 0
0.26276 -0.0408487 0
0.250298 -0.0569058 0
0.234492 -0.0780112 0
0.215011 -0.105203 0
0.192572 -0.138376 0
0.16789 -0.17743 0
0.148704 -0.210313 0
0.142755 -0.224976 0
0.1074 -0.171509 0
0 0 0
0 0 0
0.131774 0.157575 0
0.198656 0.198358 0
0.234931 0.175989 0
0.274882 0.144109 0
0.313535 0.110647 0
0.34591 0.0835296 0
0.372376 0.0620653 0
0.393298 0.0455616 0
0.409497 0.0331604 0
0.421797 0.0240036 0
0.430913 0.017246 0
0.437564 0.0120424 0
0.442146 0.00795001 0
0.445052 0.00452596 0
0.446434 0.00145807 0
0.446438 -0.00156589 0
0.444947 -0.00486538 0
0.441843 -0.00875986 0
0.436733 -0.0136915 0
0.429224 -0.0201026 0
0.418518 -0.0289336 0
0.403816 -0.0411252 0
0.384083 -0.0576964 0
0.358282 -0.079666 0
0.325422 -0.108321 0
0.28451 -0.144947 0
0.240918 -0.182207 0
0.200018 -0.212763 0
0.130237 -0.173174 0
0 0 0
2.77334e-30 0 0
0.197434 0.112051 0
0.318368 0.136742 0
0.394154 0.115908 0
0.456143 0.0913791 0
0.505557 0.0678027 0
0.54362 0.0498243 0
0.572352 0.0363076 0
0.593771 0.0261163 0
0.609469 0.0186516 0
0.621039 0.0133148 0
0.629368 0.00949482 0
0.635345 0.0065808 0
0.639399 0.00431581 0
0.641961 0.00244294 0
0.643175 0.000778053 0
0.643187 -0.000862954 0
0.641889 -0.00266441 0
0.639174 -0.00481065 0
0.634645 -0.00755411 0
0.6279 -0.0111472 0
0.618051 -0.0162282 0
0.604207 -0.0234353 0
0.584615 -0.033488 0
0.557521 -0.0471056 0
0.520484 -0.0656676 0
0.47106 -0.0905534 0
0.406754 -0.118419 0
0.325071 -0.145922 0
0.198618 -0.123102 0
2.77334e-30 0 0
0.25 0 0
0.44193 0.0493913 0
0.565274 0.0589032 0
0.643669 0.0480558 0
0.700751 0.0363694 0
0.741674 0.0258079 0
0.771593 0.0183351 0
0.792932 0.013079 0
0.808118 0.00916733 0
0.818739 0.00637329 0
0.826381 0.00447013 0
0.831745 0.00316691 0
0.835526 0.00217266 0
0.838052 0.00140536 0
0.83965 0.000782975 0
0.840403 0.000235117 0
0.840395 -0.000308593 0
0.839569 -0.000912577 0
0.83787 -0.00164126 0
0.835004 -0.00258116 0
0.830678 -0.00381879 0
0.824249 -0.0056209 0
0.815068 -0.00825424 0
0.801462 -0.0120384 0
0.781752 -0.0172931 0
0.753447 -0.024775 0
0.714052 -0.0352408 0
0.656389 -0.0480005 0
0.573277 -0.0623642 0
0.44454 -0.0543559 0
0.25 0 0
1 0 0
1 0 0
1 0 0
1 0 0
1 0 0
1 0 0
1 0 0
1 0 0
1 0 0
1 0 0
1 0 0
1 0 0
1 0 0
1 0 0
1 0 0
1 0 0
1 0 0
1 0 0
1 0 0
1 0 0
1 0 0
1 0 0
1 0 0
1 0 0
1 0 0
1 0 0
1 0 0
1 0 0
1 0 0
1 0 0
1 0 0
      </DataArray> 
      <DataArray type="Float64" NumberOfComponents="3" Name="Real Velocity" format="ascii">
0 0 0
0 0 0
0 0 0
0 0 0
0 0 0
0 0 0
0 0 0
0 0 0
0 0 0
0 0 0
0 0 0
0 0 0
0 0 0
0 0 0
0 0 0
0 0 0
0 0 0
0 0 0
0 0 0
0 0 0
0 0 0
0 0 0
0 0 0
0 0 0
0 0 0
0 0 0
0 0 0
0 0 0
0 0 0
0 0 0
0 0 0
0 0 0
0.000967281 -6.01119e-05 0
0.00133869 -6.41395e-05 0
0.00140224 -4.41824e-05 0
0.00144598 -3.23403e-05 0
0.00147857 -2.56897e-05 0
0.00150868 -2.1307e-05 0
0.00153506 -1.81918e-05 0
0.00155649 -1.53436e-05 0
0.00157498 -1.2979e-05 0
0.00159256 -1.13146e-05 0
0.00160766 -9.69226e-06 0
0.00161868 -7.45393e-06 0
0.00162666 -5.04334e-06 0
0.00163264 -2.90426e-06 0
0.00163558 -8.37828e-07 0
0.00163446 1.3548e-06 0
0.00163018 3.68825e-06 0