<?xml version="1.0"?>
<VTKFile type="UnstructuredGrid">
  <UnstructuredGrid>
  <Piece NumberOfPoints="5265"  NumberOfCells="1280">
    <Points>
      <DataArray type="Float64" NumberOfComponents="3" format="ascii">
0 0 0
0.25 0 0
0.5 0 0
0.75 0 0
1 0 0
1.25 0 0
1.5 0 0
1.75 0 0
2 0 0
2.25 0 0
2.5 0 0
2.75 0 0
3 0 0
3.25 0 0
3.5 0 0
3.75 0 0
4 0 0
4.25 0 0
4.5 0 0
4.75 0 0
5 0 0
5.25 0 0
5.5 0 0
5.75 0 0
6 0 0
6.25 0 0
6.5 0 0
6.75 0 0
7 0 0
7.25 0 0
7.5 0 0
7.75 0 0
8 0 0
8.25 0 0
8.5 0 0
8.75 0 0
9 0 0
9.25 0 0
9.5 0 0
9.75 0 0
10 0 0
10.25 0 0
10.5 0 0
10.75 0 0
11 0 0
11.25 0 0
11.5 0 0
11.75 0 0
12 0 0
12.25 0 0
12.5 0 0
12.75 0 0
13 0 0
13.25 0 0
13.5 0 0
13.75 0 0
14 0 0
14.25 0 0
14.5 0 0
14.75 0 0
15 0 0
15.25 0 0
15.5 0 0
15.75 0 0
16 0 0
16.25 0 0
16.5 0 0
16.75 0 0
17 0 0
17.25 0 0
17.5 0 0
17.75 0 0
18 0 0
18.25 0 0
18.5 0 0
18.75 0 0
19 0 0
19.25 0 0
19.5 0 0
19.75 0 0
20 0 0
0 0.25 0
0.25 0.25 0
0.5 0.25 0
0.75 0.25 0
1 0.25 0
1.25 0.25 0
1.5 0.25 0
1.75 0.25 0
2 0.25 0
2.25 0.25 0
2.5 0.25 0
2.75 0.25 0
3 0.25 0
3.25 0.25 0
3.5 0.25 0
3.75 0.25 0
4 0.25 0
4.25 0.25 0
4.5 0.25 0
4.75 0.25 0
5 0.25 0
5.25 0.25 0
5.5 0.25 0
5.75 0.25 0
6 0.25 0
6.25 0.25 0
6.5 0.25 0
6.75 0.25 0
7 0.25 0
7.25 0.25 0
7.5 0.25 0
7.75 0.25 0
8 0.25 0
8.25 0.25 0
8.5 0.25 0
8.75 0.25 0
9 0.25 0
9.25 0.25 0
9.5 0.25 0
9.75 0.25 0
10 0.25 0
10.25 0.25 0
10.5 0.25 0
10.75 0.25 0
11 0.25 0
11.25 0.25 0
11.5 0.25 0
11.75 0.25 0
12 0.25 0
12.25 0.25 0
12.5 0.25 0
12.75 0.25 0
13 0.25 0
13.25 0.25 0
13.5 0.25 0
13.75 0.25 0
14 0.25 0
14.25 0.25 0
14.5 0.25 0
14.75 0.25 0
15 0.25 0
15.25 0.25 0
15.5 0.25 0
15.75 0.25 0
16 0.25 0
16.25 0.25 0
16.5 0.25 0
16.75 0.25 0
17 0.25 0
17.25 0.25 0
17.5 0.25 0
17.75 0.25 0
18 0.25 0
18.25 0.25 0
18.5 0.25 0
18.75 0.25 0
19 0.25 0
19.25 0.25 0
19.5 0.25 0
19.75 0.25 0
20 0.25 0
0 0.5 0
0.25 0.5 0
0.5 0.5 0
0.75 0.5 0
1 0.5 0
1.25 0.5 0
1.5 0.5 0
1.75 0.5 0
2 0.5 0
2.25 0.5 0
2.5 0.5 0
2.75 0.5 0
3 0.5 0
3.25 0.5 0
3.5 0.5 0
3.75 0.5 0
4 0.5 0
4.25 0.5 0
4.5 0.5 0
4.75 0.5 0
5 0.5 0
5.25 0.5 0
5.5 0.5 0
5.75 0.5 0
6 0.5 0
6.25 0.5 0
6.5 0.5 0
6.75 0.5 0
7 0.5 0
7.25 0.5 0
7.5 0.5 0
7.75 0.5 0
8 0.5 0
8.25 0.5 0
8.5 0.5 0
8.75 0.5 0
9 0.5 0
9.25 0.5 0
9.5 0.5 0
9.75 0.5 0
10 0.5 0
10.25 0.5 0
10.5 0.5 0
10.75 0.5 0
11 0.5 0
11.25 0.5 0
11.5 0.5 0
11.75 0.5 0
12 0.5 0
12.25 0.5 0
12.5 0.5 0
12.75 0.5 0
13 0.5 0
13.25 0.5 0
13.5 0.5 0
13.75 0.5 0
14 0.5 0
14.25 0.5 0
14.5 0.5 0
14.75 0.5 0
15 0.5 0
15.25 0.5 0
15.5 0.5 0
15.75 0.5 0
16 0.5 0
16.25 0.5 0
16.5 0.5 0
16.75 0.5 0
17 0.5 0
17.25 0.5 0
17.5 0.5 0
17.75 0.5 0
18 0.5 0
18.25 0.5 0
18.5 0.5 0
18.75 0.5 0
19 0.5 0
19.25 0.5 0
19.5 0.5 0
19.75 0.5 0
20 0.5 0
0 0.75 0
0.25 0.75 0
0.5 0.75 0
0.75 0.75 0
1 0.75 0
1.25 0.75 0
1.5 0.75 0
1.75 0.75 0
2 0.75 0
2.25 0.75 0
2.5 0.75 0
2.75 0.75 0
3 0.75 0
3.25 0.75 0
3.5 0.75 0
3.75 0.75 0
4 0.75 0
4.25 0.75 0
4.5 0.75 0
4.75 0.75 0
5 0.75 0
5.25 0.75 0
5.5 0.75 0
5.75 0.75 0
6 0.75 0
6.25 0.75 0
6.5 0.75 0
6.75 0.75 0
7 0.75 0
7.25 0.75 0
7.5 0.75 0
7.75 0.75 0
8 0.75 0
8.25 0.75 0
8.5 0.75 0
8.75 0.75 0
9 0.75 0
9.25 0.75 0
9.5 0.75 0
9.75 0.75 0
10 0.75 0
10.25 0.75 0
10.5 0.75 0
10.75 0.75 0
11 0.75 0
11.25 0.75 0
11.5 0.75 0
11.75 0.75 0
12 0.75 0
12.25 0.75 0
12.5 0.75 0
12.75 0.75 0
13 0.75 0
13.25 0.75 0
13.5 0.75 0
13.75 0.75 0
14 0.75 0
14.25 0.75 0
14.5 0.75 0
14.75 0.75 0
15 0.75 0
15.25 0.75 0
15.5 0.75 0
15.75 0.75 0
16 0.75 0
16.25 0.75 0
16.5 0.75 0
16.75 0.75 0
17 0.75 0
17.25 0.75 0
17.5 0.75 0
17.75 0.75 0
18 0.75 0
18.25 0.75 0
18.5 0.75 0
18.75 0.75 0
19 0.75 0
19.25 0.75 0
19.5 0.75 0
19.75 0.75 0
20 0.75 0
0 1 0
0.25 1 0
0.5 1 0
0.75 1 0
1 1 0
1.25 1 0
1.5 1 0
1.75 1 0
2 1 0
2.25 1 0
2.5 1 0
2.75 1 0
3 1 0
3.25 1 0
3.5 1 0
3.75 1 0
4 1 0
4.25 1 0
4.5 1 0
4.75 1 0
5 1 0
5.25 1 0
5.5 1 0
5.75 1 0
6 1 0
6.25 1 0
6.5 1 0
6.75 1 0
7 1 0
7.25 1 0
7.5 1 0
7.75 1 0
8 1 0
8.25 1 0
8.5 1 0
8.75 1 0
9 1 0
9.25 1 0
9.5 1 0
9.75 1 0
10 1 0
10.25 1 0
10.5 1 0
10.75 1 0
11 1 0
11.25 1 0
11.5 1 0
11.75 1 0
12 1 0
12.25 1 0
12.5 1 0
12.75 1 0
13 1 0
13.25 1 0
13.5 1 0
13.75 1 0
14 1 0
14.25 1 0
14.5 1 0
14.75 1 0
15 1 0
15.25 1 0
15.5 1 0
15.75 1 0
16 1 0
16.25 1 0
16.5 1 0
16.75 1 0
17 1 0
17.25 1 0
17.5 1 0
17.75 1 0
18 1 0
18.25 1 0
18.5 1 0
18.75 1 0
19 1 0
19.25 1 0
19.5 1 0
19.75 1 0
20 1 0
0 1.25 0
0.25 1.25 0
0.5 1.25 0
0.75 1.25 0
1 1.25 0
1.25 1.25 0
1.5 1.25 0
1.75 1.25 0
2 1.25 0
2.25 1.25 0
2.5 1.25 0
2.75 1.25 0
3 1.25 0
3.25 1.25 0
3.5 1.25 0
3.75 1.25 0
4 1.25 0
4.25 1.25 0
4.5 1.25 0
4.75 1.25 0
5 1.25 0
5.25 1.25 0
5.5 1.25 0
5.75 1.25 0
6 1.25 0
6.25 1.25 0
6.5 1.25 0
6.75 1.25 0
7 1.25 0
7.25 1.25 0
7.5 1.25 0
7.75 1.25 0
8 1.25 0
8.25 1.25 0
8.5 1.25 0
8.75 1.25 0
9 1.25 0
9.25 1.25 0
9.5 1.25 0
9.75 1.25 0
10 1.25 0
10.25 1.25 0
10.5 1.25 0
10.75 1.25 0
11 1.25 0
11.25 1.25 0
11.5 1.25 0
11.75 1.25 0
12 1.25 0
12.25 1.25 0
12.5 1.25 0
12.75 1.25 0
13 1.25 0
13.25 1.25 0
13.5 1.25 0
13.75 1.25 0
14 1.25 0
14.25 1.25 0
14.5 1.25 0
14.75 1.25 0
15 1.25 0
15.25 1.25 0
15.5 1.25 0
15.75 1.25 0
16 1.25 0
16.25 1.25 0
16.5 1.25 0
16.75 1.25 0
17 1.25 0
17.25 1.25 0
17.5 1.25 0
17.75 1.25 0
18 1.25 0
18.25 1.25 0
18.5 1.25 0
18.75 1.25 0
19 1.25 0
19.25 1.25 0
19.5 1.25 0
19.75 1.25 0
20 1.25 0
0 1.5 0
0.25 1.5 0
0.5 1.5 0
0.75 1.5 0
1 1.5 0
1.25 1.5 0
1.5 1.5 0
1.75 1.5 0
2 1.5 0
2.25 1.5 0
2.5 1.5 0
2.75 1.5 0
3 1.5 0
3.25 1.5 0
3.5 1.5 0
3.75 1.5 0
4 1.5 0
4.25 1.5 0
4.5 1.5 0
4.75 1.5 0
5 1.5 0
5.25 1.5 0
5.5 1.5 0
5.75 1.5 0
6 1.5 0
6.25 1.5 0
6.5 1.5 0
6.75 1.5 0
7 1.5 0
7.25 1.5 0
7.5 1.5 0
7.75 1.5 0
8 1.5 0
8.25 1.5 0
8.5 1.5 0
8.75 1.5 0
9 1.5 0
9.25 1.5 0
9.5 1.5 0
9.75 1.5 0
10 1.5 0
10.25 1.5 0
10.5 1.5 0
10.75 1.5 0
11 1.5 0
11.25 1.5 0
11.5 1.5 0
11.75 1.5 0
12 1.5 0
12.25 1.5 0
12.5 1.5 0
12.75 1.5 0
13 1.5 0
13.25 1.5 0
13.5 1.5 0
13.75 1.5 0
14 1.5 0
14.25 1.5 0
14.5 1.5 0
14.75 1.5 0
15 1.5 0
15.25 1.5 0
15.5 1.5 0
15.75 1.5 0
16 1.5 0
16.25 1.5 0
16.5 1.5 0
16.75 1.5 0
17 1.5 0
17.25 1.5 0
17.5 1.5 0
17.75 1.5 0
18 1.5 0
18.25 1.5 0
18.5 1.5 0
18.75 1.5 0
19 1.5 0
19.25 1.5 0
19.5 1.5 0
19.75 1.5 0
20 1.5 0
0 1.75 0
0.25 1.75 0
0.5 1.75 0
0.75 1.75 0
1 1.75 0
1.25 1.75 0
1.5 1.75 0
1.75 1.75 0
2 1.75 0
2.25 1.75 0
2.5 1.75 0
2.75 1.75 0
3 1.75 0
3.25 1.75 0
3.5 1.75 0
3.75 1.75 0
4 1.75 0
4.25 1.75 0
4.5 1.75 0
4.75 1.75 0
5 1.75 0
5.25 1.75 0
5.5 1.75 0
5.75 1.75 0
6 1.75 0
6.25 1.75 0
6.5 1.75 0
6.75 1.75 0
7 1.75 0
7.25 1.75 0
7.5 1.75 0
7.75 1.75 0
8 1.75 0
8.25 1.75 0
8.5 1.75 0
8.75 1.75 0
9 1.75 0
9.25 1.75 0
9.5 1.75 0
9.75 1.75 0
10 1.75 0
10.25 1.75 0
10.5 1.75 0
10.75 1.75 0
11 1.75 0
11.25 1.75 0
11.5 1.75 0
11.75 1.75 0
12 1.75 0
12.25 1.75 0
12.5 1.75 0
12.75 1.75 0
13 1.75 0
13.25 1.75 0
13.5 1.75 0
13.75 1.75 0
14 1.75 0
14.25 1.75 0
14.5 1.75 0
14.75 1.75 0
15 1.75 0
15.25 1.75 0
15.5 1.75 0
15.75 1.75 0
16 1.75 0
16.25 1.75 0
16.5 1.75 0
16.75 1.75 0
17 1.75 0
17.25 1.75 0
17.5 1.75 0
17.75 1.75 0
18 1.75 0
18.25 1.75 0
18.5 1.75 0
18.75 1.75 0
19 1.75 0
19.25 1.75 0
19.5 1.75 0
19.75 1.75 0
20 1.75 0
0 2 0
0.25 2 0
0.5 2 0
0.75 2 0
1 2 0
1.25 2 0
1.5 2 0
1.75 2 0
2 2 0
2.25 2 0
2.5 2 0
2.75 2 0
3 2 0
3.25 2 0
3.5 2 0
3.75 2 0
4 2 0
4.25 2 0
4.5 2 0
4.75 2 0
5 2 0
5.25 2 0
5.5 2 0
5.75 2 0
6 2 0
6.25 2 0
6.5 2 0
6.75 2 0
7 2 0
7.25 2 0
7.5 2 0
7.75 2 0
8 2 0
8.25 2 0
8.5 2 0
8.75 2 0
9 2 0
9.25 2 0
9.5 2 0
9.75 2 0
10 2 0
10.25 2 0
10.5 2 0
10.75 2 0
11 2 0
11.25 2 0
11.5 2 0
11.75 2 0
12 2 0
12.25 2 0
12.5 2 0
12.75 2 0
13 2 0
13.25 2 0
13.5 2 0
13.75 2 0
14 2 0
14.25 2 0
14.5 2 0
14.75 2 0
15 2 0
15.25 2 0
15.5 2 0
15.75 2 0
16 2 0
16.25 2 0
16.5 2 0
16.75 2 0
17 2 0
17.25 2 0
17.5 2 0
17.75 2 0
18 2 0
18.25 2 0
18.5 2 0
18.75 2 0
19 2 0
19.25 2 0
19.5 2 0
19.75 2 0
20 2 0
0 2.25 0
0.25 2.25 0
0.5 2.25 0
0.75 2.25 0
1 2.25 0
1.25 2.25 0
1.5 2.25 0
1.75 2.25 0
2 2.25 0
2.25 2.25 0
2.5 2.25 0
2.75 2.25 0
3 2.25 0
3.25 2.25 0
3.5 2.25 0
3.75 2.25 0
4 2.25 0
4.25 2.25 0
4.5 2.25 0
4.75 2.25 0
5 2.25 0
5.25 2.25 0
5.5 2.25 0
5.75 2.25 0
6 2.25 0
6.25 2.25 0
6.5 2.25 0
6.75 2.25 0
7 2.25 0
7.25 2.25 0
7.5 2.25 0
7.75 2.25 0
8 2.25 0
8.25 2.25 0
8.5 2.25 0
8.75 2.25 0
9 2.25 0
9.25 2.25 0
9.5 2.25 0
9.75 2.25 0
10 2.25 0
10.25 2.25 0
10.5 2.25 0
10.75 2.25 0
11 2.25 0
11.25 2.25 0
11.5 2.25 0
11.75 2.25 0
12 2.25 0
12.25 2.25 0
12.5 2.25 0
12.75 2.25 0
13 2.25 0
13.25 2.25 0
13.5 2.25 0
13.75 2.25 0
14 2.25 0
14.25 2.25 0
14.5 2.25 0
14.75 2.25 0
15 2.25 0
15.25 2.25 0
15.5 2.25 0
15.75 2.25 0
16 2.25 0
16.25 2.25 0
16.5 2.25 0
16.75 2.25 0
17 2.25 0
17.25 2.25 0
17.5 2.25 0
17.75 2.25 0
18 2.25 0
18.25 2.25 0
18.5 2.25 0
18.75 2.25 0
19 2.25 0
19.25 2.25 0
19.5 2.25 0
19.75 2.25 0
20 2.25 0
0 2.5 0
0.25 2.5 0
0.5 2.5 0
0.75 2.5 0
1 2.5 0
1.25 2.5 0
1.5 2.5 0
1.75 2.5 0
2 2.5 0
2.25 2.5 0
2.5 2.5 0
2.75 2.5 0
3 2.5 0
3.25 2.5 0
3.5 2.5 0
3.75 2.5 0
4 2.5 0
4.25 2.5 0
4.5 2.5 0
4.75 2.5 0
5 2.5 0
5.25 2.5 0
5.5 2.5 0
5.75 2.5 0
6 2.5 0
6.25 2.5 0
6.5 2.5 0
6.75 2.5 0
7 2.5 0
7.25 2.5 0
7.5 2.5 0
7.75 2.5 0
8 2.5 0
8.25 2.5 0
8.5 2.5 0
8.75 2.5 0
9 2.5 0
9.25 2.5 0
9.5 2.5 0
9.75 2.5 0
10 2.5 0
10.25 2.5 0
10.5 2.5 0
10.75 2.5 0
11 2.5 0
11.25 2.5 0
11.5 2.5 0
11.75 2.5 0
12 2.5 0
12.25 2.5 0
12.5 2.5 0
12.75 2.5 0
13 2.5 0
13.25 2.5 0
13.5 2.5 0
13.75 2.5 0
14 2.5 0
14.25 2.5 0
14.5 2.5 0
14.75 2.5 0
15 2.5 0
15.25 2.5 0
15.5 2.5 0
15.75 2.5 0
16 2.5 0
16.25 2.5 0
16.5 2.5 0
16.75 2.5 0
17 2.5 0
17.25 2.5 0
17.5 2.5 0
17.75 2.5 0
18 2.5 0
18.25 2.5 0
18.5 2.5 0
18.75 2.5 0
19 2.5 0
19.25 2.5 0
19.5 2.5 0
19.75 2.5 0
20 2.5 0
0 2.75 0
0.25 2.75 0
0.5 2.75 0
0.75 2.75 0
1 2.75 0
1.25 2.75 0
1.5 2.75 0
1.75 2.75 0
2 2.75 0
2.25 2.75 0
2.5 2.75 0
2.75 2.75 0
3 2.75 0
3.25 2.75 0
3.5 2.75 0
3.75 2.75 0
4 2.75 0
4.25 2.75 0
4.5 2.75 0
4.75 2.75 0
5 2.75 0
5.25 2.75 0
5.5 2.75 0
5.75 2.75 0
6 2.75 0
6.25 2.75 0
6.5 2.75 0
6.75 2.75 0
7 2.75 0
7.25 2.75 0
7.5 2.75 0
7.75 2.75 0
8 2.75 0
8.25 2.75 0
8.5 2.75 0
8.75 2.75 0
9 2.75 0
9.25 2.75 0
9.5 2.75 0
9.75 2.75 0
10 2.75 0
10.25 2.75 0
10.5 2.75 0
10.75 2.75 0
11 2.75 0
11.25 2.75 0
11.5 2.75 0
[...]
    <PointData>
      <DataArray type="Float64" NumberOfComponents="3" Name="Velocity" format="ascii">
1 0 0
1.00006 0 0
1.00023 0 0
1.00048 0 0
1.00076 0 0
1.00105 0 0
1.00132 0 0
1.0016 0 0
1.0019 0 0
1.0022 0 0
1.00252 0 0
1.00284 0 0
1.00317 0 0
1.00352 0 0
1.00387 0 0
1.00424 0 0
1.00462 0 0
1.005 0 0
1.0054 0 0
1.0058 0 0
1.0062 0 0
1.0066 0 0
1.007 0 0
1.00739 0 0
1.00777 0 0
1.00813 0 0
1.00847 0 0
1.00879 0 0
1.00909 0 0
1.00934 0 0
1.00955 0 0
1.00973 0 0
1.00985 0 0
1.00994 0 0
1.00998 0 0
1.00997 0 0
1.0099 0 0
1.00979 0 0
1.00963 0 0
1.00943 0 0
1.00919 0 0
1.00893 0 0
1.00863 0 0
1.00831 0 0
1.00797 0 0
1.00761 0 0
1.00724 0 0
1.00687 0 0
1.00649 0 0
1.00612 0 0
1.00575 0 0
1.00538 0 0
1.00503 0 0
1.00469 0 0
1.00436 0 0
1.00405 0 0
1.00376 0 0
1.00348 0 0
1.00321 0 0
1.00297 0 0
1.00274 0 0
1.00252 0 0
1.00232 0 0
1.00214 0 0
1.00197 0 0
1.00181 0 0
1.00167 0 0
1.00154 0 0
1.00142 0 0
1.00132 0 0
1.00122 0 0
1.00114 0 0
1.00106 0 0
1.00099 0 0
1.00093 0 0
1.00088 0 0
1.00084 0 0
1.00081 0 0
1.00078 0 0
1.00076 0 0
1.00075 0 0
1 0 0
1.00006 -0.00011977 0
1.00023 -0.000217446 0
1.00048 -0.000277412 0
1.00076 -0.000284054 0
1.00104 -0.00027251 0
1.00132 -0.000277916 0
1.0016 -0.000290196 0
1.00189 -0.000299273 0
1.0022 -0.000307497 0
1.00251 -0.000317217 0
1.00283 -0.000328006 0
1.00316 -0.000339435 0
1.00351 -0.000350907 0
1.00387 -0.000361827 0
1.00423 -0.000372221 0
1.00461 -0.000382119 0
1.005 -0.000390684 0
1.00539 -0.000397081 0
1.00579 -0.000401103 0
1.0062 -0.000402541 0
1.0066 -0.000400985 0
1.007 -0.000396025 0
1.00739 -0.000387098 0
1.00778 -0.000373643 0
1.00814 -0.000355619 0
1.00849 -0.000332986 0
1.00881 -0.000305735 0
1.0091 -0.000273859 0
1.00936 -0.000237318 0
1.00958 -0.000196073 0
1.00975 -0.000151645 0
1.00988 -0.000105554 0
1.00997 -5.83812e-05 0
1.01 -1.07111e-05 0
1.00998 3.74126e-05 0
1.00992 8.59456e-05 0
1.00981 0.00013332 0
1.00966 0.00017797 0
1.00946 0.000218783 0
1.00922 0.000254648 0
1.00895 0.000285836 0
1.00865 0.000312617 0
1.00832 0.000334865 0
1.00797 0.000352455 0
1.00761 0.000365257 0
1.00724 0.00037314 0
1.00686 0.000376688 0
1.00648 0.000376484 0
1.00611 0.000372979 0
1.00574 0.000366624 0
1.00537 0.000357704 0
1.00502 0.000346506 0
1.00468 0.000333484 0
1.00435 0.00031909 0
1.00404 0.000303714 0
1.00375 0.000287746 0
1.00347 0.000271415 0
1.0032 0.000254952 0
1.00296 0.000238544 0
1.00273 0.000222378 0
1.00251 0.000206576 0
1.00231 0.000191261 0
1.00213 0.00017649 0
1.00196 0.00016232 0
1.00181 0.000148774 0
1.00166 0.000135875 0
1.00153 0.000123619 0
1.00142 0.000112002 0
1.00131 0.000100993 0
1.00122 9.05643e-05 0
1.00113 8.06823e-05 0
1.00105 7.13152e-05 0
1.00099 6.24094e-05 0
1.00093 5.39116e-05 0
1.00088 4.57876e-05 0
1.00084 3.80032e-05 0
1.0008 3.04821e-05 0
1.00078 2.31477e-05 0
1.00076 1.60084e-05 0
1.00075 9.07258e-06 0
1 0 0
1.00006 -0.000238913 0
1.00023 -0.000433735 0
1.00048 -0.000553354 0
1.00075 -0.000566656 0
1.00104 -0.000543714 0
1.00131 -0.0005546 0
1.00159 -0.000579245 0
1.00188 -0.000597577 0
1.00218 -0.000614217 0
1.00249 -0.000633786 0
1.00281 -0.000655533 0
1.00315 -0.000678706 0
1.00349 -0.000702065 0
1.00385 -0.000724371 0
1.00422 -0.000745512 0
1.0046 -0.000765377 0
1.00499 -0.000782699 0
1.00538 -0.000796214 0
1.00579 -0.000805215 0
1.0062 -0.000808999 0
1.00661 -0.000806545 0
1.00701 -0.000796836 0
1.00741 -0.000779053 0
1.0078 -0.000752378 0
1.00817 -0.000716107 0
1.00853 -0.000669534 0
1.00885 -0.000613757 0
1.00915 -0.000549875 0
1.00941 -0.000477852 0
1.00964 -0.000397651 0
1.00982 -0.000309954 0
1.00996 -0.00021544 0
1.01004 -0.000117054 0
1.01008 -1.77387e-05 0
1.01006 8.06145e-05 0
1.00999 0.000176116 0
1.00987 0.000268119 0
1.00971 0.000355976 0
1.00951 0.000437728 0
1.00927 0.000511419 0
1.00899 0.000575985 0
1.00868 0.000630366 0
1.00835 0.000674841 0
1.008 0.000709689 0
1.00763 0.000735077 0
1.00725 0.000751175 0
1.00687 0.000758579 0
1.00648 0.000757889 0
1.0061 0.00075014 0
1.00573 0.000736368 0
1.00536 0.000717512 0
1.005 0.000694508 0
1.00466 0.000668108 0
1.00433 0.000639066 0
1.00402 0.000608084 0
1.00372 0.000575866 0
1.00344 0.000542928 0
1.00318 0.000509786 0
1.00293 0.000476808 0
1.0027 0.000444365 0
1.00249 0.000412677 0
1.00229 0.00038197 0
1.00211 0.000352367 0
1.00194 0.000323997 0
1.00179 0.000296897 0
1.00165 0.000271104 0
1.00152 0.000246607 0
1.0014 0.000223392 0
1.0013 0.000201403 0
1.0012 0.000180581 0
1.00112 0.000160859 0
1.00104 0.000142169 0
1.00097 0.000124402 0
1.00092 0.000107454 0
1.00087 9.12555e-05 0
1.00083 7.5737e-05 0
1.00079 6.07452e-05 0
1.00077 4.61263e-05 0
1.00075 3.18963e-05 0
1.00073 1.80711e-05 0
1 0 0
1.00006 -0.000356756 0
1.00023 -0.000647667 0
1.00047 -0.000826329 0
1.00074 -0.000846339 0
1.00102 -0.000812308 0
1.00129 -0.000828844 0
1.00157 -0.000866006 0
1.00186 -0.00089385 0
1.00216 -0.000919246 0
1.00247 -0.000949065 0
1.00279 -0.00098223 0
1.00312 -0.00101766 0
1.00346 -0.0010535 0
1.00382 -0.00108789 0
1.00419 -0.00112056 0
1.00457 -0.00115125 0
1.00497 -0.00117823 0
1.00537 -0.00119979 0
1.00578 -0.00121475 0
1.0062 -0.00122193 0
1.00661 -0.00121944 0
1.00703 -0.00120538 0
1.00744 -0.00117905 0
1.00784 -0.00113973 0
1.00822 -0.00108602 0
1.00859 -0.00101654 0
1.00893 -0.000932592 0
1.00924 -0.000835524 0
1.00951 -0.000726042 0
1.00974 -0.000604853 0
1.00993 -0.000472426 0
1.01007 -0.000329226 0
1.01016 -0.000179245 0
1.0102 -2.64766e-05 0
1.01019 0.00012489 0
1.01011 0.000270664 0
1.00999 0.000410073 0
1.00982 0.000542342 0
1.0096 0.000665415 0
1.00935 0.000777235 0
1.00906 0.000875525 0
1.00874 0.000958004 0
1.0084 0.00102495 0
1.00803 0.00107664 0
1.00766 0.00111383 0
1.00727 0.00113729 0
1.00687 0.00114773 0
1.00648 0.00114592 0
1.00609 0.0011333 0
1.00571 0.00111133 0
1.00533 0.00108167 0
1.00497 0.00104596 0
1.00463 0.00100534 0
1.00429 0.000960915 0
1.00398 0.000913688 0
1.00368 0.000864659 0
1.0034 0.000814631 0
1.00314 0.000764408 0
1.00289 0.000714534 0
1.00266 0.000665555 0
1.00245 0.000617786 0
1.00225 0.000571541 0
1.00207 0.00052701 0
1.00191 0.000484383 0
1.00175 0.000443705 0
1.00161 0.000405023 0
1.00149 0.000368312 0
1.00137 0.000333547 0
1.00127 0.000300638 0
1.00118 0.000269496 0
1.00109 0.000240016 0
1.00102 0.000212089 0
1.00095 0.000185556 0
1.0009 0.000160255 0
1.00085 0.000136081 0
1.00081 0.000112929 0
1.00077 9.05678e-05 0
1.00075 6.87673e-05 0
1.00073 4.75491e-05 0
1.00072 2.69354e-05 0
1 0 0
1.00006 -0.000472626 0
1.00022 -0.000858038 0
1.00046 -0.00109484 0
1.00073 -0.00112164 0
1.001 -0.00107699 0
1.00127 -0.00109944 0
1.00154 -0.00114934 0
1.00182 -0.00118703 0
1.00212 -0.00122167 0
1.00243 -0.00126241 0
1.00275 -0.00130775 0
1.00308 -0.00135616 0
1.00342 -0.00140525 0
1.00378 -0.00145264 0
1.00415 -0.00149805 0
1.00454 -0.0015412 0
1.00494 -0.00157946 0
1.00535 -0.00161021 0
1.00577 -0.00163213 0
1.00619 -0.00164391 0
1.00662 -0.00164244 0
1.00705 -0.00162462 0
1.00747 -0.00159027 0
1.00789 -0.00153922 0
1.00829 -0.00146993 0
1.00868 -0.00138088 0
1.00904 -0.00127077 0
1.00936 -0.00113828 0
1.00966 -0.000986327 0
1.0099 -0.000817798 0
1.0101 -0.000636561 0
1.01024 -0.000446478 0
1.01033 -0.000248185 0
1.01037 -4.23184e-05 0
1.01036 0.000165523 0
1.01029 0.000369742 0
1.01016 0.000564857 0
1.00998 0.00074539 0
1.00975 0.00091042 0
1.00948 0.00105902 0
1.00917 0.00118954 0
1.00883 0.00130029 0
1.00847 0.00139022 0
1.00808 0.00145825 0
1.00768 0.0015059 0
1.00728 0.00153465 0
1.00687 0.00154622 0
1.00647 0.00154229 0
1.00607 0.00152428 0
1.00568 0.00149361 0
1.00529 0.00145241 0
1.00493 0.00140284 0
1.00458 0.00134665 0
1.00424 0.00128563 0
1.00392 0.00122111 0
1.00362 0.00115442 0
1.00334 0.00108662 0
1.00308 0.00101873 0
1.00283 0.000951464 0
1.00261 0.000885543 0
1.0024 0.00082138 0
1.0022 0.000759389 0
1.00202 0.000699796 0
1.00186 0.000642828 0
1.00171 0.000588536 0
1.00157 0.000536968 0
1.00145 0.000488082 0
1.00133 0.000441839 0
1.00123 0.000398107 0
1.00114 0.000356754 0
1.00106 0.000317636 0
1.00099 0.000280607 0
1.00092 0.000245448 0
1.00087 0.000211939 0
1.00082 0.000179939 0
1.00078 0.000149305 0
1.00075 0.000119728 0
1.00072 9.09018e-05 0
1.00071 6.28521e-05 0
1.00069 3.56052e-05 0
1 0 0
1.00005 -0.000585809 0
1.00022 -0.00106358 0
1.00045 -0.00135729 0
1.00071 -0.00139095 0
1.00098 -0.00133627 0
1.00124 -0.00136497 0
1.0015 -0.00142789 0
1.00178 -0.00147591 0
1.00208 -0.00152042 0
1.00238 -0.00157285 0
1.00269 -0.00163127 0
1.00302 -0.00169374 0
1.00337 -0.00175732 0
1.00373 -0.00181903 0
1.0041 -0.00187871 0
1.00449 -0.00193617 0
1.0049 -0.00198768 0
1.00532 -0.00202949 0
1.00575 -0.00206019 0
1.00618 -0.00207833 0
1.00663 -0.00208003 0
1.00707 -0.00206136 0
1.00752 -0.00202161 0
1.00796 -0.00196004 0
1.00839 -0.00187494 0
1.00879 -0.00176459 0
1.00917 -0.00162675 0
1.00952 -0.00145917 0
1.00983 -0.00126503 0
1.0101 -0.0010475 0
1.01031 -0.000813596 0
1.01047 -0.000570317 0
1.01056 -0.000317674 0
1.0106 -5.5677e-05 0
1.01059 0.000210138 0
1.01051 0.000474235 0
1.01038 0.000727523 0
1.01019 0.000960915 0
1.00994 0.00117264 0
1.00964 0.00136091 0
1.00931 0.00152495 0
1.00894 0.00166396 0
1.00855 0.0017764 0
1.00815 0.00186071 0
1.00773 0.00191847 0
1.0073 0.00195122 0
1.00687 0.00196186 0
1.00645 0.00195328 0
1.00603 0.00192731 0
1.00563 0.00188581 0
1.00524 0.00183126 0
1.00487 0.00176616 0
1.00451 0.00169287 0
1.00417 0.00161376 0
1.00385 0.00153059 0
1.00355 0.00144515 0
1.00327 0.00135865 0
1.003 0.00127233 0
1.00276 0.00118704 0
1.00253 0.00110369 0
1.00232 0.00102277 0
1.00213 0.000944772 0
1.00196 0.000869955 0
1.00179 0.000798558 0
1.00165 0.000730624 0
1.00151 0.000666199 0
1.00139 0.000605213 0
1.00128 0.0005476 0
1.00118 0.000493179 0
1.00109 0.000441771 0
1.00102 0.000393187 0
1.00095 0.000347239 0
1.00088 0.000303646 0
1.00083 0.000262129 0
1.00079 0.000222505 0
1.00075 0.000184592 0
1.00072 0.000148005 0
1.00069 0.00011236 0
1.00067 7.76857e-05 0
1.00066 4.40107e-05 0
1 0 0
1.00005 -0.000695593 0
1.00021 -0.00126301 0
1.00044 -0.00161209 0
1.00069 -0.00165268 0
1.00094 -0.00158868 0
1.0012 -0.001624 0
1.00145 -0.00170031 0
1.00173 -0.00175928 0
1.00202 -0.00181446 0
1.00231 -0.00187941 0
1.00263 -0.00195197 0
1.00295 -0.00202997 0
1.0033 -0.00210971 0
1.00366 -0.00218746 0
1.00404 -0.00226325 0
1.00443 -0.00233711 0
1.00484 -0.0024042 0
1.00527 -0.00245968 0
1.00571 -0.00250176 0
1.00617 -0.00252864 0
1.00663 -0.00253672 0
1.00711 -0.00252244 0
1.00758 -0.00248194 0
1.00805 -0.00241138 0
1.0085 -0.00230816 0
1.00894 -0.0021697 0
1.00934 -0.00199903 0
1.00971 -0.00179922 0
1.01005 -0.00156847 0
1.01034 -0.00130498 0
1.01058 -0.00101477 0
1.01076 -0.000703865 0
1.01087 -0.000381516 0
1.01091 -5.69655e-05 0
1.01088 0.000266359 0
1.01078 0.000585031 0
1.01063 0.000893122 0
1.01042 0.00118471 0
1.01016 0.00145195 0
1.00984 0.00168702 0
1.00948 0.0018887 0
1.00909 0.00205577 0
1.00867 0.00218926 0
1.00823 0.00229023 0
1.00779 0.00235875 0
1.00733 0.00239492 0
1.00688 0.00240248 0
1.00643 0.00238518 0
1.006 0.00234665 0
1.00558 0.00229056 0
1.00517 0.00221972 0
1.00479 0.00213697 0
1.00442 0.00204483 0
1.00408 0.00194585 0
1.00375 0.0018424 0
1.00345 0.00173682 0
1.00317 0.0016305 0
1.00291 0.00152479 0
1.00267 0.00142073 0
1.00244 0.00131936 0
1.00224 0.00122124 0
1.00205 0.00112695 0
1.00188 0.00103672 0
1.00172 0.000950795 0
1.00157 0.000869206 0
1.00144 0.000791978 0
1.00133 0.000719 0
1.00122 0.00065016 0
1.00113 0.000585225 0
1.00104 0.000523964 0
1.00096 0.000466136 0
1.0009 0.000411503 0
1.00084 0.000359721 0
1.00079 0.000310445 0
1.00074 0.000263451 0
1.00071 0.000218515 0
1.00068 0.000175176 0
1.00065 0.000132971 0
1.00064 9.19303e-05 0
1.00063 5.20824e-05 0
1 0 0
1.00005 -0.000801204 0
1.0002 -0.00145493 0
1.00042 -0.00185744 0
1.00066 -0.00190504 0
1.00091 -0.00183259 0
1.00115 -0.00187496 0
1.0014 -0.00196503 0
1.00167 -0.00203565 0
1.00195 -0.00210243 0
1.00224 -0.00218096 0
1.00254 -0.0022689 0
1.00287 -0.0023639 0
1.00321 -0.00246162 0
1.00357 -0.00255768 0
1.00395 -0.00265204 0
1.00435 -0.00274463 0
1.00477 -0.00282996 0
1.00521 -0.00290253 0
1.00567 -0.0029599 0
1.00615 -0.00299965 0
1.00664 -0.00301747 0
1.00714 -0.00300904 0
1.00764 -0.00296893 0
1.00814 -0.00289171 0
1.00863 -0.00277317 0
1.0091 -0.00260906 0
1.00954 -0.00240617 0
1.00995 -0.00217127 0
1.01032 -0.00189999 0
1.01064 -0.00158794 0
1.01091 -0.00123883 0
1.01112 -0.000856396 0
1.01124 -0.000457441 0
1.01128 -5.87757e-05 0
1.01124 0.000334242 0
1.01113 0.000716254 0
1.01095 0.00108441 0
1.01071 0.00143586 0
1.01042 0.00175943 0
1.01008 0.00204392 0
1.00968 0.00228592 0
1.00925 0.002482 0
1.0088 0.00263578 0
1.00832 0.00275086 0
1.00784 0.00282712 0
1.00736 0.00286444 0
1.00688 0.00286694 0
1.0064 0.00283873 0
1.00594 0.00278501 0
1.0055 0.00271098 0
1.00508 0.00262035 0
1.00469 0.00251684 0
1.00431 0.00240321 0
1.00396 0.00228219 0
1.00364 0.00215658 0
1.00333 0.00202919 0
1.00305 0.0019016 0
1.00279 0.00177538 0
1.00255 0.00165168 0
1.00233 0.00153167 0
1.00213 0.00141591 0
1.00195 0.00130499 0
1.00178 0.00119914 0
1.00163 0.00109863 0
1.00149 0.00100341 0
1.00136 0.000913477 0
1.00125 0.000828658 0
1.00115 0.000748786 0
1.00106 0.00067357 0
1.00098 0.000602716 0
1.0009 0.000535925 0
1.00084 0.0004729 0
1.00078 0.000413228 0
1.00074 0.000356499 0
1.00069 0.000302446 0
1.00066 0.000250798 0
1.00063 0.000201018 0
1.00061 0.000152565 0
1.00059 0.000105469 0
1.00058 5.97542e-05 0
1 0 0
1.00005 -0.000901871 0
1.00019 -0.00163793 0
1.0004 -0.00209159 0
1.00062 -0.0021463 0
1.00086 -0.00206641 0
1.00109 -0.00211627 0
1.00133 -0.00222045 0
1.00159 -0.0023035 0
1.00186 -0.00238296 0
1.00214 -0.00247638 0
1.00244 -0.00258113 0
1.00276 -0.00269459 0
1.0031 -0.00281221 0
1.00346 -0.00292943 0
1.00385 -0.00304542 0
1.00425 -0.00315936 0
1.00468 -0.00326593 0
1.00514 -0.00335977 0
1.00561 -0.00343763 0
1.00611 -0.00349622 0
1.00663 -0.00352724 0
1.00716 -0.00352236 0
1.00769 -0.00348023 0
1.00822 -0.00339951 0
1.00875 -0.00327352 0
1.00927 -0.00309555 0
1.00978 -0.00286673 0
1.01025 -0.00258817 0
1.01066 -0.00226294 0
1.01101 -0.0018941 0
1.0113 -0.00148454 0
1.01151 -0.00103718 0
1.01166 -0.000563181 0
1.01173 -7.36992e-05 0
1.01171 0.000413844 0
1.01159 0.000882029 0
1.01138 0.00132415 0
1.01109 0.00173348 0
1.01074 0.00210612 0
1.01035 0.00243816 0
1.0099 0.00272173 0
1.00942 0.00294895 0
1.00892 0.00312291 0
1.0084 0.00324667 0
1.00787 0.00332395 0
1.00736 0.00335845 0
1.00685 0.00335406 0
1.00635 0.00331467 0
1.00587 0.0032451 0
1.00541 0.00315019 0
1.00498 0.00303569 0
1.00457 0.00290738 0
1.00419 0.00276868 0
1.00383 0.00262302 0
1.0035 0.00247319 0
1.00319 0.002322 0
1.00291 0.0021714 0
1.00266 0.00202337 0
1.00242 0.00187909 0
1.00221 0.00173974 0
1.00201 0.00160585 0
1.00183 0.00147795 0
1.00167 0.00135629 0
1.00152 0.00124113 0
1.00139 0.00113237 0
1.00127 0.00102986 0
1.00116 0.0009334 0
1.00107 0.000842745 0
1.00098 0.000757537 0
1.0009 0.000677411 0
1.00083 0.000601998 0
1.00077 0.000530926 0
1.00072 0.000463721 0
1.00068 0.000399905 0
1.00064 0.000339159 0
1.00061 0.000281164 0
1.00058 0.000225307 0
1.00056 0.000170973 0
1.00054 0.000118184 0
1.00053 6.69602e-05 0
1 0 0
1.00004 -0.000996739 0
1.00018 -0.00181047 0
1.00037 -0.00231257 0
1.00059 -0.00237439 0
1.00081 -0.00228815 0
1.00103 -0.00234608 0
1.00126 -0.00246478 0
1.0015 -0.00256084 0
1.00176 -0.00265392 0
1.00203 -0.00276367 0
1.00233 -0.00288697 0
1.00264 -0.00302071 0
1.00297 -0.00316035 0
1.00333 -0.00330135 0
1.00372 -0.00344227 0
1.00413 -0.00358165 0
1.00457 -0.00371391 0
1.00504 -0.00383348 0
1.00553 -0.0039363 0
1.00606 -0.00401829 0
1.0066 -0.00406775 0
1.00716 -0.00407297 0
1.00774 -0.00403534 0
1.00832 -0.00395626 0
1.0089 -0.00382695 0
1.00948 -0.00363863 0
1.01005 -0.00338485 0
1.01059 -0.00305913 0
1.01106 -0.00267176 0
1.01145 -0.00223299 0
1.01176 -0.00175046 0
1.012 -0.00123178 0
1.01216 -0.000679822 0
1.01224 -9.74658e-05 0
1.01223 0.000490631 0
1.01211 0.00105981 0
1.01187 0.00159307 0
1.01154 0.00207342 0
1.01114 0.0025035 0
1.01068 0.00288599 0
1.01017 0.00321159 0
1.00963 0.00347097 0
1.00907 0.00366531 0
1.00849 0.00379577 0
1.00791 0.00386964 0
1.00735 0.0038942 0
1.0068 0.00387519 0
1.00628 0.00381835 0
1.00577 0.00372779 0
1.00529 0.00360764 0
1.00484 0.00346536 0
1.00442 0.0033084 0
1.00403 0.00314105 0
1.00367 0.00296756 0
1.00334 0.00279084 0
1.00303 0.0026138 0
1.00275 0.00243862 0
1.0025 0.00226747 0
1.00227 0.00210158 0
1.00206 0.00194216 0
1.00187 0.00178966 0
1.0017 0.00164453 0
1.00154 0.00150697 0
1.0014 0.00137721 0
1.00128 0.00125502 0
1.00116 0.00114016 0
1.00106 0.00103233 0
1.00097 0.000931232 0
1.00089 0.000836402 0
1.00082 0.000747394 0
1.00076 0.000663763 0
1.0007 0.000585064 0
1.00065 0.000510749 0
1.00061 0.000440272 0
1.00058 0.000373259 0
1.00055 0.000309338 0
1.00052 0.000247823 0
1.0005 0.000188027 0
1.00049 0.00012996 0
1.00048 7.36343e-05 0
1 0 0
1.00004 -0.00108496 0
1.00017 -0.00197103 0
1.00034 -0.0025184 0
1.00054 -0.00258724 0
1.00075 -0.00249585 0
1.00095 -0.00256254 0
1.00117 -0.00269619 0
1.0014 -0.00280567 0
1.00164 -0.00291316 0
1.00191 -0.00304085 0
1.00219 -0.00318477 0
1.00249 -0.00334095 0
1.00282 -0.00350489 0
1.00318 -0.00367211 0
1.00356 -0.00384147 0
1.00398 -0.00401182 0
1.00443 -0.00417572 0
1.00491 -0.0043257 0
1.00543 -0.00445723 0
1.00598 -0.0045658 0
1.00656 -0.00464075 0
1.00717 -0.00467145 0
1.0078 -0.00465372 0
1.00846 -0.00458341 0
1.00912 -0.0044512 0
1.00976 -0.00424776 0
1.01038 -0.00396463 0
1.01096 -0.00359337 0
1.01149 -0.0031409 0
1.01196 -0.00261417 0
1.01234 -0.00203513 0
1.01261 -0.00142572 0
1.01277 -0.000788447 0
1.01283 -0.000125805 0
1.01279 0.000550072 0
1.01265 0.00122705 0
1.01241 0.00187193 0
1.01206 0.00245152 0
1.01161 0.00296303 0
1.0111 0.00340367 0
1.01052 0.00377095 0
1.00992 0.00406242 0
1.00929 0.00427765 0
1.00864 0.00441625 0
1.008 0.00448456 0
1.00737 0.00448893 0
1.00676 0.00444168 0
1.00619 0.00435512 0
1.00565 0.00423393 0
1.00514 0.00408278 0
1.00467 0.00390895 0
1.00424 0.00371974 0
1.00384 0.00352011 0
1.00348 0.00331502 0
1.00314 0.00310815 0
1.00284 0.00290316 0
1.00257 0.00270194 0
1.00232 0.00250638 0
1.00209 0.0023178 0
1.00189 0.00213753 0
1.00171 0.00196594 0
1.00155 0.00180342 0
1.0014 0.00165002 0
1.00127 0.00150574 0
1.00115 0.0013703 0
1.00105 0.00124338 0
1.00095 0.00112457 0
1.00087 0.00101344 0
1.0008 0.000909443 0
1.00073 0.000812009 0
1.00067 0.00072063 0
1.00062 0.000634792 0
1.00058 0.000553863 0
1.00054 0.000477211 0
1.00051 0.000404412 0
1.00048 0.000335043 0
1.00046 0.000268345 0
1.00044 0.000203559 0
1.00043 0.000140682 0
1.00042 7.97102e-05 0
1 0 0
1.00004 -0.00116555 0
1.00015 -0.00211792 0
1.00031 -0.002707 0
1.00049 -0.00278272 0
1.00068 -0.00268741 0
1.00087 -0.00276339 0
1.00106 -0.00291229 0
1.00128 -0.00303575 0
1.00151 -0.00315861 0
1.00176 -0.00330574 0
1.00203 -0.00347208 0
1.00232 -0.00365256 0
1.00264 -0.00384329 0
1.00299 -0.00404039 0
1.00337 -0.0042424 0
1.00379 -0.0044479 0
1.00425 -0.00464847 0
1.00475 -0.00483569 0
1.00529 -0.00500355 0
1.00587 -0.00514605 0
1.00649 -0.00525492 0
1.00715 -0.00532191 0
1.00785 -0.00533381 0
1.00858 -0.0052774 0
1.00932 -0.00514248 0
1.01003 -0.00491888 0
1.01071 -0.00460383 0
1.01136 -0.00419453 0
1.01196 -0.0036878 0
1.01253 -0.00308041 0
1.01301 -0.0023979 0
1.01334 -0.0016658 0
1.01354 -0.000903607 0
1.01357 -0.000130817 0
1.01349 0.000650736 0
1.01331 0.00143922 0
1.01302 0.00219625 0
1.01263 0.00288347 0
1.01213 0.00348763 0
1.01154 0.00399548 0
1.01088 0.00440792 0
1.01019 0.00472585 0
1.00948 0.00495384 0
1.00877 0.00509646 0
1.00806 0.00515667 0
1.00736 0.00513748 0
1.00669 0.0050565 0
1.00607 0.00493139 0
1.00549 0.00476986 0
1.00496 0.00457963 0
1.00447 0.00436765 0
1.00403 0.00414087 0
1.00362 0.00390457 0
1.00325 0.00366403 0
1.00292 0.00342378 0
1.00262 0.00318839 0
1.00235 0.00295931 0
1.00211 0.00273798 0
1.0019 0.00252578 0
1.00171 0.00232406 0
1.00154 0.00213308 0
1.00138 0.0019531 0
1.00125 0.00178392 0
1.00112 0.00162537 0
1.00102 0.00147701 0
1.00092 0.00133846 0
1.00083 0.00120914 0
1.00076 0.00108851 0
1.00069 0.000975873 0
1.00063 0.000870573 0
1.00058 0.000772012 0