<?xml version="1.0"?>
<VTKFile type="UnstructuredGrid">
  <UnstructuredGrid>
  <Piece NumberOfPoints="961"  NumberOfCells="225">
    <Points>
      <DataArray type="Float64" NumberOfComponents="3" format="ascii">
0 0 0
0.0333333 0 0
0.0666667 0 0
0.1 0 0
0.133333 0 0
0.166667 0 0
0.2 0 0
0.233333 0 0
0.266667 0 0
0.3 0 0
0.333333 0 0
0.366667 0 0
0.4 0 0
0.433333 0 0
0.466667 0 0
0.5 0 0
0.533333 0 0
0.566667 0 0
0.6 0 0
0.633333 0 0
0.666667 0 0
0.7 0 0
0.733333 0 0
0.766667 0 0
0.8 0 0
0.833333 0 0
0.866667 0 0
0.9 0 0
0.933333 0 0
0.966667 0 0
1 0 0
0 0.0333333 0
0.0333333 0.0333333 0
0.0666667 0.0333333 0
0.1 0.0333333 0
0.133333 0.0333333 0
0.166667 0.0333333 0
0.2 0.0333333 0
0.233333 0.0333333 0
0.266667 0.0333333 0
0.3 0.0333333 0
0.333333 0.0333333 0
0.366667 0.0333333 0
0.4 0.0333333 0
0.433333 0.0333333 0
0.466667 0.0333333 0
0.5 0.0333333 0
0.533333 0.0333333 0
0.566667 0.0333333 0
0.6 0.0333333 0
0.633333 0.0333333 0
0.666667 0.0333333 0
0.7 0.0333333 0
0.733333 0.0333333 0
0.766667 0.0333333 0
0.8 0.0333333 0
0.833333 0.0333333 0
0.866667 0.0333333 0
0.9 0.0333333 0
0.933333 0.0333333 0
0.966667 0.0333333 0
1 0.0333333 0
0 0.0666667 0
0.0333333 0.0666667 0
0.0666667 0.0666667 0
0.1 0.0666667 0
0.133333 0.0666667 0
0.166667 0.0666667 0
0.2 0.0666667 0
0.233333 0.0666667 0
0.266667 0.0666667 0
0.3 0.0666667 0
0.333333 0.0666667 0
0.366667 0.0666667 0
0.4 0.0666667 0
0.433333 0.0666667 0
0.466667 0.0666667 0
0.5 0.0666667 0
0.533333 0.0666667 0
0.566667 0.0666667 0
0.6 0.0666667 0
0.633333 0.0666667 0
0.666667 0.0666667 0
0.7 0.0666667 0
0.733333 0.0666667 0
0.766667 0.0666667 0
0.8 0.0666667 0
0.833333 0.0666667 0
0.866667 0.0666667 0
0.9 0.0666667 0
0.933333 0.0666667 0
0.966667 0.0666667 0
1 0.0666667 0
0 0.1 0
0.0333333 0.1 0
0.0666667 0.1 0
0.1 0.1 0
0.133333 0.1 0
0.166667 0.1 0
0.2 0.1 0
0.233333 0.1 0
0.266667 0.1 0
0.3 0.1 0
0.333333 0.1 0
0.366667 0.1 0
0.4 0.1 0
0.433333 0.1 0
0.466667 0.1 0
0.5 0.1 0
0.533333 0.1 0
0.566667 0.1 0
0.6 0.1 0
0.633333 0.1 0
0.666667 0.1 0
0.7 0.1 0
0.733333 0.1 0
0.766667 0.1 0
0.8 0.1 0
0.833333 0.1 0
0.866667 0.1 0
0.9 0.1 0
0.933333 0.1 0
0.966667 0.1 0
1 0.1 0
0 0.133333 0
0.0333333 0.133333 0
0.0666667 0.133333 0
0.1 0.133333 0
0.133333 0.133333 0
0.166667 0.133333 0
0.2 0.133333 0
0.233333 0.133333 0
0.266667 0.133333 0
0.3 0.133333 0
0.333333 0.133333 0
0.366667 0.133333 0
0.4 0.133333 0
0.433333 0.133333 0
0.466667 0.133333 0
0.5 0.133333 0
0.533333 0.133333 0
0.566667 0.133333 0
0.6 0.133333 0
0.633333 0.133333 0
0.666667 0.133333 0
0.7 0.133333 0
0.733333 0.133333 0
0.766667 0.133333 0
0.8 0.133333 0
0.833333 0.133333 0
0.866667 0.133333 0
0.9 0.133333 0
0.933333 0.133333 0
0.966667 0.133333 0
1 0.133333 0
0 0.166667 0
0.0333333 0.166667 0
0.0666667 0.166667 0
0.1 0.166667 0
0.133333 0.166667 0
0.166667 0.166667 0
0.2 0.166667 0
0.233333 0.166667 0
0.266667 0.166667 0
0.3 0.166667 0
0.333333 0.166667 0
0.366667 0.166667 0
0.4 0.166667 0
0.433333 0.166667 0
0.466667 0.166667 0
0.5 0.166667 0
0.533333 0.166667 0
0.566667 0.166667 0
0.6 0.166667 0
0.633333 0.166667 0
0.666667 0.166667 0
0.7 0.166667 0
0.733333 0.166667 0
0.766667 0.166667 0
0.8 0.166667 0
0.833333 0.166667 0
0.866667 0.166667 0
0.9 0.166667 0
0.933333 0.166667 0
0.966667 0.166667 0
1 0.166667 0
0 0.2 0
0.0333333 0.2 0
0.0666667 0.2 0
0.1 0.2 0
0.133333 0.2 0
0.166667 0.2 0
0.2 0.2 0
0.233333 0.2 0
0.266667 0.2 0
0.3 0.2 0
0.333333 0.2 0
0.366667 0.2 0
0.4 0.2 0
0.433333 0.2 0
0.466667 0.2 0
0.5 0.2 0
0.533333 0.2 0
0.566667 0.2 0
0.6 0.2 0
0.633333 0.2 0
0.666667 0.2 0
0.7 0.2 0
0.733333 0.2 0
0.766667 0.2 0
0.8 0.2 0
0.833333 0.2 0
0.866667 0.2 0
0.9 0.2 0
0.933333 0.2 0
0.966667 0.2 0
1 0.2 0
0 0.233333 0
0.0333333 0.233333 0
0.0666667 0.233333 0
0.1 0.233333 0
0.133333 0.233333 0
0.166667 0.233333 0
0.2 0.233333 0
0.233333 0.233333 0
0.266667 0.233333 0
0.3 0.233333 0
0.333333 0.233333 0
0.366667 0.233333 0
0.4 0.233333 0
0.433333 0.233333 0
0.466667 0.233333 0
0.5 0.233333 0
0.533333 0.233333 0
0.566667 0.233333 0
0.6 0.233333 0
0.633333 0.233333 0
0.666667 0.233333 0
0.7 0.233333 0
0.733333 0.233333 0
0.766667 0.233333 0
0.8 0.233333 0
0.833333 0.233333 0
0.866667 0.233333 0
0.9 0.233333 0
0.933333 0.233333 0
0.966667 0.233333 0
1 0.233333 0
0 0.266667 0
0.0333333 0.266667 0
0.0666667 0.266667 0
0.1 0.266667 0
0.133333 0.266667 0
0.166667 0.266667 0
0.2 0.266667 0
0.233333 0.266667 0
0.266667 0.266667 0
0.3 0.266667 0
0.333333 0.266667 0
0.366667 0.266667 0
0.4 0.266667 0
0.433333 0.266667 0
0.466667 0.266667 0
0.5 0.266667 0
0.533333 0.266667 0
0.566667 0.266667 0
0.6 0.266667 0
0.633333 0.266667 0
0.666667 0.266667 0
0.7 0.266667 0
0.733333 0.266667 0
0.766667 0.266667 0
0.8 0.266667 0
0.833333 0.266667 0
0.866667 0.266667 0
0.9 0.266667 0
0.933333 0.266667 0
0.966667 0.266667 0
1 0.266667 0
0 0.3 0
0.0333333 0.3 0
0.0666667 0.3 0
0.1 0.3 0
0.133333 0.3 0
0.166667 0.3 0
0.2 0.3 0
0.233333 0.3 0
0.266667 0.3 0
0.3 0.3 0
0.333333 0.3 0
0.366667 0.3 0
0.4 0.3 0
0.433333 0.3 0
0.466667 0.3 0
0.5 0.3 0
0.533333 0.3 0
0.566667 0.3 0
0.6 0.3 0
0.633333 0.3 0
0.666667 0.3 0
0.7 0.3 0
0.733333 0.3 0
0.766667 0.3 0
0.8 0.3 0
0.833333 0.3 0
0.866667 0.3 0
0.9 0.3 0
0.933333 0.3 0
0.966667 0.3 0
1 0.3 0
0 0.333333 0
0.0333333 0.333333 0
0.0666667 0.333333 0
0.1 0.333333 0
0.133333 0.333333 0
0.166667 0.333333 0
0.2 0.333333 0
0.233333 0.333333 0
0.266667 0.333333 0
0.3 0.333333 0
0.333333 0.333333 0
0.366667 0.333333 0
0.4 0.333333 0
0.433333 0.333333 0
0.466667 0.333333 0
0.5 0.333333 0
0.533333 0.333333 0
0.566667 0.333333 0
0.6 0.333333 0
0.633333 0.333333 0
0.666667 0.333333 0
0.7 0.333333 0
0.733333 0.333333 0
0.766667 0.333333 0
0.8 0.333333 0
0.833333 0.333333 0
0.866667 0.333333 0
0.9 0.333333 0
0.933333 0.333333 0
0.966667 0.333333 0
1 0.333333 0
0 0.366667 0
0.0333333 0.366667 0
0.0666667 0.366667 0
0.1 0.366667 0
0.133333 0.366667 0
0.166667 0.366667 0
0.2 0.366667 0
0.233333 0.366667 0
0.266667 0.366667 0
0.3 0.366667 0
0.333333 0.366667 0
0.366667 0.366667 0
0.4 0.366667 0
0.433333 0.366667 0
0.466667 0.366667 0
0.5 0.366667 0
0.533333 0.366667 0
0.566667 0.366667 0
0.6 0.366667 0
0.633333 0.366667 0
0.666667 0.366667 0
0.7 0.366667 0
0.733333 0.366667 0
0.766667 0.366667 0
0.8 0.366667 0
0.833333 0.366667 0
0.866667 0.366667 0
0.9 0.366667 0
0.933333 0.366667 0
0.966667 0.366667 0
1 0.366667 0
0 0.4 0
0.0333333 0.4 0
0.0666667 0.4 0
0.1 0.4 0
0.133333 0.4 0
0.166667 0.4 0
0.2 0.4 0
0.233333 0.4 0
0.266667 0.4 0
0.3 0.4 0
0.333333 0.4 0
0.366667 0.4 0
0.4 0.4 0
0.433333 0.4 0
0.466667 0.4 0
0.5 0.4 0
0.533333 0.4 0
0.566667 0.4 0
0.6 0.4 0
0.633333 0.4 0
0.666667 0.4 0
0.7 0.4 0
0.733333 0.4 0
0.766667 0.4 0
0.8 0.4 0
0.833333 0.4 0
0.866667 0.4 0
0.9 0.4 0
0.933333 0.4 0
0.966667 0.4 0
1 0.4 0
0 0.433333 0
0.0333333 0.433333 0
0.0666667 0.433333 0
0.1 0.433333 0
0.133333 0.433333 0
0.166667 0.433333 0
0.2 0.433333 0
0.233333 0.433333 0
0.266667 0.433333 0
0.3 0.433333 0
0.333333 0.433333 0
0.366667 0.433333 0
0.4 0.433333 0
0.433333 0.433333 0
0.466667 0.433333 0
0.5 0.433333 0
0.533333 0.433333 0
0.566667 0.433333 0
0.6 0.433333 0
0.633333 0.433333 0
0.666667 0.433333 0
0.7 0.433333 0
0.733333 0.433333 0
0.766667 0.433333 0
0.8 0.433333 0
0.833333 0.433333 0
0.866667 0.433333 0
0.9 0.433333 0
0.933333 0.433333 0
0.966667 0.433333 0
1 0.433333 0
0 0.466667 0
0.0333333 0.466667 0
0.0666667 0.466667 0
0.1 0.466667 0
0.133333 0.466667 0
0.166667 0.466667 0
0.2 0.466667 0
0.233333 0.466667 0
0.266667 0.466667 0
0.3 0.466667 0
0.333333 0.466667 0
0.366667 0.466667 0
0.4 0.466667 0
0.433333 0.466667 0
0.466667 0.466667 0
0.5 0.466667 0
0.533333 0.466667 0
0.566667 0.466667 0
0.6 0.466667 0
0.633333 0.466667 0
0.666667 0.466667 0
0.7 0.466667 0
0.733333 0.466667 0
0.766667 0.466667 0
0.8 0.466667 0
0.833333 0.466667 0
0.866667 0.466667 0
0.9 0.466667 0
0.933333 0.466667 0
0.966667 0.466667 0
1 0.466667 0
0 0.5 0
0.0333333 0.5 0
0.0666667 0.5 0
0.1 0.5 0
0.133333 0.5 0
0.166667 0.5 0
0.2 0.5 0
0.233333 0.5 0
0.266667 0.5 0
0.3 0.5 0
0.333333 0.5 0
0.366667 0.5 0
0.4 0.5 0
0.433333 0.5 0
0.466667 0.5 0
0.5 0.5 0
0.533333 0.5 0
0.566667 0.5 0
0.6 0.5 0
0.633333 0.5 0
0.666667 0.5 0
0.7 0.5 0
0.733333 0.5 0
0.766667 0.5 0
0.8 0.5 0
0.833333 0.5 0
0.866667 0.5 0
0.9 0.5 0
0.933333 0.5 0
0.966667 0.5 0
1 0.5 0
0 0.533333 0
0.0333333 0.533333 0
0.0666667 0.533333 0
0.1 0.533333 0
0.133333 0.533333 0
0.166667 0.533333 0
0.2 0.533333 0
0.233333 0.533333 0
0.266667 0.533333 0
0.3 0.533333 0
0.333333 0.533333 0
0.366667 0.533333 0
0.4 0.533333 0
0.433333 0.533333 0
0.466667 0.533333 0
0.5 0.533333 0
0.533333 0.533333 0
0.566667 0.533333 0
0.6 0.533333 0
0.633333 0.533333 0
0.666667 0.533333 0
0.7 0.533333 0
0.733333 0.533333 0
0.766667 0.533333 0
0.8 0.533333 0
0.833333 0.533333 0
0.866667 0.533333 0
0.9 0.533333 0
0.933333 0.533333 0
0.966667 0.533333 0
1 0.533333 0
0 0.566667 0
0.0333333 0.566667 0
0.0666667 0.566667 0
0.1 0.566667 0
0.133333 0.566667 0
0.166667 0.566667 0
0.2 0.566667 0
0.233333 0.566667 0
0.266667 0.566667 0
0.3 0.566667 0
0.333333 0.566667 0
0.366667 0.566667 0
0.4 0.566667 0
0.433333 0.566667 0
0.466667 0.566667 0
0.5 0.566667 0
0.533333 0.566667 0
0.566667 0.566667 0
0.6 0.566667 0
0.633333 0.566667 0
0.666667 0.566667 0
0.7 0.566667 0
0.733333 0.566667 0
0.766667 0.566667 0
0.8 0.566667 0
0.833333 0.566667 0
0.866667 0.566667 0
0.9 0.566667 0
0.933333 0.566667 0
0.966667 0.566667 0
1 0.566667 0
0 0.6 0
0.0333333 0.6 0
0.0666667 0.6 0
0.1 0.6 0
0.133333 0.6 0
0.166667 0.6 0
0.2 0.6 0
0.233333 0.6 0
0.266667 0.6 0
0.3 0.6 0
0.333333 0.6 0
0.366667 0.6 0
0.4 0.6 0
0.433333 0.6 0
0.466667 0.6 0
0.5 0.6 0
0.533333 0.6 0
0.566667 0.6 0
0.6 0.6 0
0.633333 0.6 0
0.666667 0.6 0
0.7 0.6 0
0.733333 0.6 0
0.766667 0.6 0
0.8 0.6 0
0.833333 0.6 0
0.866667 0.6 0
0.9 0.6 0
0.933333 0.6 0
0.966667 0.6 0
1 0.6 0
0 0.633333 0
0.0333333 0.633333 0
0.0666667 0.633333 0
0.1 0.633333 0
0.133333 0.633333 0
0.166667 0.633333 0
0.2 0.633333 0
0.233333 0.633333 0
0.266667 0.633333 0
[...]
    <PointData>
      <DataArray type="Float64" NumberOfComponents="3" Name="Velocity" format="ascii">
0 0 0
0 0 0
0 0 0
0 0 0
0 0 0
0 0 0
0 0 0
0 0 0
0 0 0
0 0 0
0 0 0
0 0 0
0 0 0
0 0 0
0 0 0
0 0 0
0 0 0
0 0 0
0 0 0
0 0 0
0 0 0
0 0 0
0 0 0
0 0 0
0 0 0
0 0 0
0 0 0
0 0 0
0 0 0
0 0 0
0 0 0
0 0 0
-0.000462699 0.00041877 0
-0.0013696 0.000914108 0
-0.00285946 0.00139115 0
-0.00507104 0.00175504 0
-0.00768365 0.0019648 0
-0.0103766 0.00197943 0
-0.0130408 0.00187421 0
-0.0155673 0.00172437 0
-0.0178655 0.00152929 0
-0.0198447 0.00128834 0
-0.0214791 0.00102125 0
-0.0227428 0.000747731 0
-0.0236192 0.000467295 0
-0.0240914 0.000179437 0
-0.0241554 -0.000111349 0
-0.0238073 -0.000400566 0
-0.0230596 -0.000679148 0
-0.0219251 -0.000938031 0
-0.0204363 -0.00117982 0
-0.0186256 -0.00140713 0
-0.0165299 -0.00159555 0
-0.0141861 -0.00172066 0
-0.0116974 -0.00179584 0
-0.00916687 -0.00183445 0
-0.00667459 -0.00176974 0
-0.00430067 -0.00153497 0
-0.00233017 -0.00117362 0
-0.00104818 -0.000729157 0
-0.000317262 -0.000303857 0
0 0 0
0 0 0
-0.0006742 0.00104306 0
-0.00285972 0.00256139 0
-0.00624932 0.00405521 0
-0.0105357 0.00502474 0
-0.0153389 0.00553208 0
-0.0202788 0.00563936 0
-0.0251314 0.00544203 0
-0.0296726 0.00503556 0
-0.0337827 0.00447071 0
-0.037342 0.0037982 0
-0.0402958 0.00304996 0
-0.0425899 0.00225787 0
-0.0441856 0.00143021 0
-0.0450447 0.000575256 0
-0.0451612 -0.000289365 0
-0.0445293 -0.00114602 0
-0.0431692 -0.00197454 0
-0.0411014 -0.00275476 0
-0.0383857 -0.00347326 0
-0.0350819 -0.00411661 0
-0.0312762 -0.00465643 0
-0.0270544 -0.00506435 0
-0.0225499 -0.00530038 0
-0.0178959 -0.00532451 0
-0.0133158 -0.00508069 0
-0.00903315 -0.00451287 0
-0.00531631 -0.00356223 0
-0.00243359 -0.00216999 0
-0.000592372 -0.00082097 0
0 0 0
0 0 0
-0.00118804 0.00274748 0
-0.00471717 0.00589326 0
-0.00987611 0.00870626 0
-0.0159536 0.0104554 0
-0.0225707 0.0113157 0
-0.0293485 0.0114622 0
-0.0359805 0.011042 0
-0.0421599 0.0102018 0
-0.0477547 0.00905369 0
-0.0526327 0.00770965 0
-0.0567035 0.00621348 0
-0.0598767 0.00460897 0
-0.0620948 0.00292252 0
-0.0633004 0.00118052 0
-0.0634825 -0.000581254 0
-0.0626299 -0.00232706 0
-0.0607712 -0.00401813 0
-0.0579347 -0.00561572 0
-0.0542034 -0.00707936 0
-0.0496599 -0.00836857 0
-0.0444418 -0.00944801 0
-0.0386863 -0.0102823 0
-0.0325386 -0.010779 0
-0.0261436 -0.0108453 0
-0.0198182 -0.0104044 0
-0.0138792 -0.00937895 0
-0.0085689 -0.00763638 0
-0.00412956 -0.00504398 0
-0.00109524 -0.00227433 0
0 0 0
0 0 0
-0.00255775 0.00640664 0
-0.00718874 0.0118611 0
-0.0134464 0.0160584 0
-0.020884 0.0186932 0
-0.0289837 0.0199294 0
-0.0372276 0.0199306 0
-0.045297 0.0190126 0
-0.0528734 0.0174913 0
-0.0597844 0.0155077 0
-0.0658578 0.0132028 0
-0.0709554 0.0106392 0
-0.0749389 0.00787958 0
-0.0777422 0.00497798 0
-0.0792992 0.0019883 0
-0.0795846 -0.00103422 0
-0.0785734 -0.00403437 0
-0.076308 -0.00694187 0
-0.072831 -0.00968643 0
-0.0682444 -0.0121972 0
-0.0626503 -0.0144032 0
-0.0562297 -0.0162357 0
-0.0491633 -0.0176259 0
-0.0416446 -0.0184969 0
-0.0338667 -0.0187721 0
-0.0260764 -0.0182123 0
-0.0185206 -0.0165785 0
-0.0116985 -0.0138666 0
-0.0061094 -0.0100726 0
-0.00209578 -0.00538693 0
0 0 0
0 0 0
-0.00360423 0.0104706 0
-0.00941192 0.0184445 0
-0.0169475 0.0240983 0
-0.0257355 0.0276083 0
-0.0351736 0.0291943 0
-0.0446597 0.0290761 0
-0.0539191 0.0277053 0
-0.0626769 0.0255336 0
-0.0707129 0.0227129 0
-0.0778069 0.019395 0
-0.083791 0.0156762 0
-0.0884975 0.0116529 0
-0.0918409 0.00740536 0
-0.0937361 0.00301352 0
-0.0941416 -0.00143766 0
-0.0930162 -0.00586325 0
-0.0904105 -0.0101529 0
-0.0863752 -0.0141963 0
-0.0810333 -0.0178881 0
-0.074508 -0.0211229 0
-0.0670147 -0.0237859 0
-0.0587691 -0.0257622 0
-0.0500328 -0.0270081 0
-0.0410676 -0.0274799 0
-0.032041 -0.0268202 0
-0.0231201 -0.0246715 0
-0.0149227 -0.0210138 0
-0.00806631 -0.0158271 0
-0.00295678 -0.00889475 0
0 0 0
0 0 0
-0.00314836 0.0133895 0
-0.0105242 0.0236229 0
-0.0203671 0.0308125 0
-0.0309165 0.0350704 0
-0.0417359 0.0369314 0
-0.0523887 0.0369304 0
-0.0626848 0.0354715 0
-0.0724343 0.0329584 0
-0.0813811 0.0295497 0
-0.0892693 0.0254038 0
-0.0959497 0.0206737 0
-0.101273 0.0155122 0
-0.105104 0.0100134 0
-0.107306 0.00427112 0
-0.107828 -0.00158095 0
-0.106615 -0.00740898 0
-0.10371 -0.0130584 0
-0.0991521 -0.0183748 0
-0.0930941 -0.0232136 0
-0.0856875 -0.0274303 0
-0.077172 -0.0308652 0
-0.0677872 -0.0333586 0
-0.057868 -0.0348662 0
-0.0477489 -0.035344 0
-0.0376624 -0.0345439 0
-0.0278408 -0.0322181 0
-0.0184594 -0.0278389 0
-0.00969351 -0.0208788 0
-0.00304104 -0.0115337 0
0 0 0
0 0 0
-0.00284277 0.0188795 0
-0.0113315 0.0323259 0
-0.0228171 0.041115 0
-0.0346504 0.0460228 0
-0.0466259 0.0479656 0
-0.0585382 0.0478596 0
-0.0701126 0.0460422 0
-0.0810741 0.0428506 0
-0.0911515 0.0384976 0
-0.100073 0.0331955 0
-0.107679 0.0271219 0
-0.113807 0.0204542 0
-0.118278 0.0133094 0
-0.120913 0.00580441 0
-0.121648 -0.00187459 0
-0.120415 -0.00954158 0
-0.117243 -0.0169879 0
-0.112159 -0.024005 0
-0.105333 -0.0303907 0
-0.0969317 -0.0359428 0
-0.0872328 -0.0404518 0
-0.0765132 -0.043708 0
-0.0651675 -0.0456172 0
-0.05359 -0.0460853 0
-0.0422222 -0.0450375 0
-0.0315051 -0.0423992 0
-0.0211634 -0.0373201 0
-0.0109216 -0.0289501 0
-0.00309533 -0.0167048 0
0 0 0
0 0 0
-0.00434011 0.0306569 0
-0.0126398 0.0494828 0
-0.0234098 0.0599194 0
-0.0351605 0.0654088 0
-0.0477989 0.0671219 0
-0.0612321 0.0662295 0
-0.0747205 0.0631484 0
-0.0875245 0.0582953 0
-0.0993861 0.0520361 0
-0.110047 0.0447364 0
-0.119225 0.0365112 0
-0.126638 0.0274754 0
-0.132108 0.0178002 0
-0.13546 0.00765668 0
-0.136606 -0.0027291 0
-0.13546 -0.0131311 0
-0.132047 -0.0232708 0
-0.126394 -0.0328698 0
-0.118655 -0.0416362 0
-0.108983 -0.049278 0
-0.0977288 -0.055524 0
-0.0852426 -0.0601034 0
-0.0719485 -0.0628068 0
-0.0582706 -0.0634248 0
-0.0450019 -0.0619552 0
-0.0329355 -0.0583958 0
-0.0218893 -0.0524356 0
-0.0116813 -0.0437636 0
-0.00386643 -0.0278088 0
0 0 0
0 0 0
-0.005201 0.0397111 0
-0.0126324 0.0629613 0
-0.0222099 0.0751754 0
-0.0338494 0.0817781 0
-0.0471891 0.0839197 0
-0.0618673 0.0827506 0
-0.0768674 0.078844 0
-0.0911728 0.0727736 0
-0.10451 0.0650065 0
-0.116606 0.0560097 0
-0.127081 0.0458634 0
-0.135553 0.0346477 0
-0.141862 0.0226021 0
-0.145842 0.00996616 0
-0.147394 -0.00299559 0
-0.146415 -0.0160186 0
-0.142921 -0.0287584 0
-0.13693 -0.0408703 0
-0.128572 -0.051962 0
-0.117978 -0.0616412 0
-0.105538 -0.0695702 0
-0.0916393 -0.0754112 0
-0.0767406 -0.0788305 0
-0.0613 -0.0794948 0
-0.0463377 -0.0773695 0
-0.0328739 -0.0724204 0
-0.0211804 -0.0650635 0
-0.0115287 -0.0557149 0
-0.00433116 -0.0366139 0
0 0 0
0 0 0
-0.00298606 0.0370315 0
-0.00949226 0.0606293 0
-0.0192823 0.0748325 0
-0.0321199 0.0836803 0
-0.0467308 0.0878786 0
-0.0618407 0.0881334 0
-0.0769118 0.0851832 0
-0.0914061 0.0797667 0
-0.104949 0.0722498 0
-0.117165 0.0629987 0
-0.127735 0.0522006 0
-0.136338 0.0400428 0
-0.142803 0.0268311 0
-0.146956 0.0128711 0
-0.148701 -0.00152517 0
-0.147944 -0.0160456 0
-0.144664 -0.0303022 0
-0.138838 -0.0439071 0
-0.130592 -0.0563795 0
-0.120053 -0.0672382 0
-0.107538 -0.076079 0
-0.0933675 -0.0824976 0
-0.0780734 -0.0860838 0
-0.0621878 -0.0864272 0
-0.0465657 -0.0833528 0
-0.0320622 -0.0766856 0
-0.0195797 -0.0670822 0
-0.0100203 -0.0551993 0
-0.0034663 -0.0348882 0
0 0 0
0 0 0
-0.00123367 0.0307525 0
-0.00743491 0.0534852 0
-0.0178343 0.0697652 0
-0.0316624 0.0811595 0
-0.0470196 0.0878819 0
-0.062006 0.0901459 0
-0.0765815 0.0887654 0
-0.0907059 0.0845545 0
-0.103905 0.0777705 0
-0.115705 0.068671 0
-0.125884 0.0575992 0
-0.134218 0.0448983 0
-0.14053 0.0309318 0
-0.144642 0.0160632 0
-0.146475 0.000649229 0
-0.145948 -0.0149533 0
-0.143009 -0.0303317 0
-0.137607 -0.0450729 0
-0.129853 -0.0586336 0
-0.119856 -0.0704702 0
-0.107841 -0.0800947 0
-0.0940287 -0.0870196 0
-0.0789908 -0.0907628 0
-0.0632984 -0.0908427 0
-0.0475634 -0.0869171 0
-0.0323974 -0.0786442 0
-0.0191781 -0.066572 0
-0.00928327 -0.0512489 0
-0.00284614 -0.0299624 0
0 0 0
0 0 0
-0.00348219 0.0290087 0
-0.0106757 0.0525277 0
-0.0210732 0.0708477 0
-0.0341675 0.0842599 0
-0.0486511 0.092813 0
-0.0632166 0.0965559 0
-0.0776041 0.0961902 0
-0.0915539 0.0924171 0
-0.104583 0.0855731 0
-0.116209 0.0759944 0
-0.126223 0.0641357 0
-0.134415 0.0504515 0
-0.140639 0.0353488 0
-0.144744 0.0192343 0
-0.146662 0.00249468 0
-0.146326 -0.0144835 0
-0.143694 -0.0312764 0
-0.138726 -0.0474602 0
-0.131487 -0.0624694 0
-0.122038 -0.0757384 0
-0.110558 -0.0866618 0
-0.0972241 -0.0946338 0
-0.0825365 -0.0990639 0
-0.0669964 -0.0993618 0
-0.0512082 -0.0950745 0
-0.0357763 -0.0857492 0
-0.0220666 -0.0716137 0
-0.011445 -0.0528955 0
-0.00404493 -0.0291668 0
0 0 0
0 0 0
-0.00631151 0.0313932 0
-0.0148637 0.0575553 0
-0.0254645 0.0783322 0
-0.0379221 0.0935696 0
-0.0517072 0.103402 0
-0.0662906 0.107964 0
-0.0810009 0.107868 0
-0.0951663 0.103726 0
-0.108335 0.096044 0
-0.120054 0.0853294 0
-0.130119 0.0721185 0
-0.138324 0.0569475 0
-0.144565 0.0402505 0
-0.148735 0.0224612 0
-0.150777 0.00397938 0
-0.150634 -0.0147953 0
-0.148279 -0.0334319 0
-0.143685 -0.0514995 0
-0.136853 -0.0684225 0
-0.127785 -0.0836251 0
-0.116614 -0.0963736 0
-0.103475 -0.105934 0
-0.0887768 -0.111574 0
-0.0729284 -0.11256 0
-0.0566327 -0.1083 0
-0.0405924 -0.0981975 0
-0.0260515 -0.0821381 0
-0.0142535 -0.0600058 0
-0.00547689 -0.0324199 0
0 0 0
0 0 0
-0.00630152 0.037499 0
-0.0156479 0.0683666 0
-0.0274735 0.0924702 0
-0.041213 0.109677 0
-0.0562694 0.12038 0
-0.0720462 0.124972 0
-0.0877931 0.12421 0
-0.10276 0.118852 0
-0.116513 0.10957 0
-0.128617 0.0970367 0
-0.138937 0.0818558 0
-0.147337 0.0646313 0
-0.153744 0.0458055 0
-0.15809 0.0258208 0
-0.160331 0.00507153 0
-0.160428 -0.0160481 0
-0.158325 -0.0370938 0
-0.15397 -0.0576216 0
-0.147308 -0.0770287 0
-0.13828 -0.0947124 0
-0.126931 -0.109824 0
-0.113303 -0.121513 0
-0.0977782 -0.128878 0
-0.0807414 -0.131014 0
-0.0629693 -0.127067 0
-0.045239 -0.116186 0
-0.0289388 -0.0980764 0
-0.0154569 -0.0724465 0
-0.00555627 -0.0396398 0
0 0 0
0 0 0
-0.00536165 0.0449983 0
-0.0153256 0.0814047 0
-0.028721 0.109214 0
-0.0443772 0.128421 0
-0.0613087 0.139771 0
-0.0785302 0.144007 0
-0.0953427 0.142139 0
-0.111047 0.135172 0
-0.125264 0.123958 0
-0.137612 0.109345 0
-0.148041 0.0919917 0
-0.1565 0.0725585 0
-0.162966 0.0514892 0
-0.167417 0.0292278 0
-0.169829 0.00614509 0
-0.17018 -0.0173882 0
-0.168378 -0.040932 0
-0.164333 -0.0640459 0
-0.157924 -0.0860998 0
-0.149029 -0.106464 0
-0.137586 -0.124193 0
-0.123533 -0.138343 0
-0.107207 -0.147793 0
-0.088947 -0.151421 0
-0.0695853 -0.148054 0
-0.049955 -0.136522 0
-0.0316716 -0.116324 0
-0.0163508 -0.0869611 0
-0.00534325 -0.0482481 0
0 0 0
0 0 0
-0.00540128 0.0515632 0
-0.016194 0.0931125 0
-0.0308276 0.124516 0
-0.0477517 0.145642 0
-0.0657958 0.1576 0
-0.0837896 0.1615 0
-0.101012 0.158577 0
-0.116741 0.150065 0
-0.130735 0.137015 0
-0.14275 0.120482 0
-0.152791 0.10117 0
-0.160861 0.0797851 0
-0.167019 0.056777 0
-0.171324 0.0325969 0
-0.173773 0.00757403 0
-0.174363 -0.0179625 0
-0.172982 -0.0436166 0
-0.169521 -0.0689923 0
-0.163774 -0.093448 0
-0.155534 -0.116342 0
-0.144655 -0.136661 0
-0.130992 -0.153393 0
-0.114731 -0.165134 0
-0.0960571 -0.17048 0
-0.0758478 -0.167938 0
-0.0549793 -0.156014 0
-0.0351932 -0.133777 0
-0.0182309 -0.100293 0
-0.005898 -0.0556662 0
0 0 0
0 0 0
-0.00591888 0.058479 0
-0.0176469 0.105184 0
-0.0333437 0.140008 0
-0.0511688 0.162841 0
-0.0698056 0.175156 0
-0.0879371 0.178423 0
-0.104876 0.174182 0
-0.119933 0.16397 0
-0.133022 0.149025 0
-0.144056 0.130584 0
-0.153122 0.109407 0
-0.160308 0.0862558 0
-0.165767 0.061567 0
-0.169647 0.0357785 0
-0.171975 0.00915948 0
-0.172778 -0.0180206 0
-0.171932 -0.0454398 0
-0.169317 -0.072776 0
-0.164645 -0.0994155 0
-0.157626 -0.124744 0
-0.148002 -0.147686 0
-0.135511 -0.167164 0
-0.120147 -0.181505 0
-0.101903 -0.189036 0
-0.0815887 -0.18783 0
-0.0600155 -0.175959 0
-0.0390517 -0.151956 0
-0.020566 -0.114352 0
-0.00680111 -0.063561 0
0 0 0
0 0 0
-0.00641287 0.0670311 0
-0.0190781 0.119315 0
-0.0358195 0.157322 0
-0.0544612 0.181522 0
-0.0734131 0.193727 0
-0.0910853 0.195748 0
-0.107009 0.189609 0
-0.120716 0.17733 0
-0.132224 0.16027 0
-0.141552 0.139784 0
-0.148966 0.116718 0
-0.154732 0.0919153 0
-0.159075 0.0657571 0
-0.162222 0.0386226 0
-0.164247 0.0107026 0
-0.165225 -0.0178126 0
-0.165021 -0.0466938 0
-0.163502 -0.0757123 0
-0.160322 -0.104345 0
-0.155138 -0.132067 0
-0.14749 -0.157724 0
-0.13692 -0.180158 0
-0.123254 -0.197514 0
-0.106315 -0.207935 0
-0.0866401 -0.208842 0
-0.0647673 -0.197654 0
-0.0427957 -0.172384 0
-0.0228247 -0.131047 0
-0.00763315 -0.0735995 0
0 0 0
0 0 0
-0.00692912 0.0766451 0
-0.0206451 0.134803 0
-0.0383779 0.175716 0
-0.0573577 0.200626 0
-0.0758916 0.211946 0
-0.0922868 0.212089 0
-0.106304 0.203562 0
-0.117706 0.188871 0
-0.126697 0.169523 0
-0.133483 0.147022 0
-0.138521 0.122252 0
-0.142266 0.0960948 0
-0.145023 0.068851 0
-0.147096 0.0408213 0
-0.148613 0.0120953 0
-0.1497 -0.0172374 0
-0.150223 -0.0470654 0
-0.150046 -0.0772772 0
-0.148782 -0.107476 0
-0.146042 -0.137265 0
-0.14117 -0.165484 0
-0.133511 -0.190968 0
-0.122621 -0.211676 0
-0.108058 -0.225563 0
-0.090036 -0.229374 0
-0.0687721 -0.219854 0
-0.0464139 -0.194194 0
-0.0251092 -0.149583 0
-0.008443 -0.0851444 0
0 0 0
0 0 0
-0.00751347 0.0867471 0
-0.0225055 0.150948 0
-0.0411417 0.19445 0
-0.0595873 0.219096 0
-0.0765141 0.228447 0
-0.090594 0.226061 0
-0.101654 0.214748 0
-0.109521 0.19732 0
-0.1148 0.175557 0
-0.118093 0.151238 0
-0.119982 0.125161 0
-0.121045 0.098125 0
-0.121689 0.0703524 0
-0.122317 0.0420663 0
-0.123098 0.0132297 0
-0.124198 -0.0161943 0
-0.125508 -0.0462412 0
-0.126919 -0.0769465 0
-0.127998 -0.108051 0
-0.128312 -0.139294 0
-0.127094 -0.169674 0
-0.123574 -0.19819 0
-0.11682 -0.222511 0
-0.105897 -0.240304 0
-0.0908107 -0.247822 0
-0.0715675 -0.241317 0
-0.0498951 -0.216521 0
-0.0275219 -0.169167 0
-0.00927955 -0.0975582 0
0 0 0
0 0 0
-0.00842887 0.0979431 0
-0.0243289 0.167792 0
-0.0430833 0.212744 0
-0.0600751 0.235998 0
-0.0742434 0.242318 0
-0.0845274 0.236469 0
-0.0910764 0.22174 0
-0.0940398 0.201415 0
-0.0944363 0.177412 0
-0.0932847 0.151643 0
-0.0912647 0.124778 0
-0.0890559 0.0974849 0
-0.0871416 0.0698808 0
-0.0860047 0.0420829 0
-0.0858399 0.0139209 0
-0.0868418 -0.0147757 0
-0.0889436 -0.0441978 0
-0.0920786 -0.0745363 0
-0.0958058 -0.105701 0
-0.0996842 -0.137603 0
-0.10289 -0.169477 0
-0.104599 -0.200556 0
-0.103401 -0.228427 0
-0.0978808 -0.250675 0
-0.0875234 -0.262907 0
-0.0718117 -0.260731 0
-0.052084 -0.238255 0
-0.029679 -0.18959 0
-0.0103874 -0.111313 0
0 0 0
0 0 0
-0.00993822 0.110839 0
-0.0257847 0.185375 0
-0.0431755 0.229823 0
-0.0577462 0.250397 0
-0.0680419 0.252647 0
-0.0726073 0.242123 0
-0.0725905 0.223111 0
-0.0691397 0.199897 0
-0.0635113 0.174127 0
-0.0569615 0.14745 0
-0.0502871 0.120436 0
-0.0442848 0.0936532 0
-0.0394497 0.0670558 0
-0.0362772 0.0405967 0
-0.0349757 0.0139839 0
-0.035754 -0.0130743 0
-0.0385957 -0.0409118 0
-0.0434845 -0.0698623 0
-0.0500428 -0.100062 0
-0.0578934 -0.131645 0
-0.0661874 -0.164071 0
-0.0740765 -0.196797 0
-0.0799155 -0.227835 0
-0.0820594 -0.255193 0
-0.0787335 -0.27335 0
-0.0681629 -0.276784 0
-0.0518249 -0.258284 0
-0.0311969 -0.210645 0
-0.0120111 -0.126879 0
0 0 0
0 0 0
-0.0108685 0.124085 0
-0.026463 0.202219 0
-0.0416494 0.244206 0
-0.0512931 0.259851 0
-0.0546471 0.256203 0
-0.0509643 0.240316 0
-0.0424049 0.217113 0
-0.0311289 0.191519 0
-0.018517 0.164756 0
-0.00595006 0.138044 0
0.00574353 0.111801 0
0.0157355 0.0864461 0
0.0235892 0.0617587 0
0.0288678 0.0375193 0
0.0313738 0.0133368 0
0.0309098 -0.01118 0
0.027439 -0.0364779 0
0.0209246 -0.0630036 0
0.0116156 -0.091115 0
-0.000238951 -0.12117 0
-0.0138735 -0.152892 0
-0.0285224 -0.186004 0
-0.0425174 -0.219168 0
-0.0541899 -0.251044 0
-0.0605727 -0.275511 0
-0.0586982 -0.286446 0
-0.0488797 -0.274541 0
-0.0314302 -0.230487 0
-0.0129401 -0.142801 0
0 0 0
0 0 0
-0.0100465 0.136333 0
-0.0259539 0.216845 0
-0.0387363 0.254414 0
-0.0394078 0.261917 0
-0.0307962 0.249759 0
-0.0157294 0.228342 0
0.00327145 0.201993 0
0.0236851 0.17504 0
0.0440548 0.148355 0
0.0629234 0.122812 0
0.0796197 0.0985425 0
0.0934723 0.0756798 0
0.104178 0.0538708 0
0.111433 0.0327627 0
0.115088 0.0118975 0
0.114994 -0.00918282 0
0.111064 -0.0309908 0
0.10321 -0.0540391 0
0.0914937 -0.0788456 0
0.0759797 -0.105928 0
0.0571646 -0.135373 0
0.0355453 -0.167266 0
0.0126409 -0.200861 0
-0.0100296 -0.235415 0
-0.0291726 -0.26575 0
-0.0414946 -0.28669 0
-0.04301 -0.284957 0
-0.0297335 -0.247271 0
-0.0119638 -0.157622 0
0 0 0
0 0 0
-0.00927893 0.150209 0
-0.0206729 0.227899 0
-0.0244485 0.254429 0
-0.010872 0.251159 0
0.0134092 0.230479 0
0.0417479 0.204779 0
0.0718175 0.1771 0
0.101291 0.150487 0
0.128872 0.125444 0
0.153262 0.102476 0
0.174099 0.0813987 0
0.191021 0.0620258 0
0.203914 0.0439285 0
0.212665 0.0266777 0
0.217201 0.00979698 0
0.217447 -0.00718988 0
0.213276 -0.0248049 0
0.204557 -0.0435699 0
0.191153 -0.0640732 0
0.172924 -0.0869028 0
0.149971 -0.112501 0
0.122397 -0.141309 0
0.0913149 -0.173122 0
0.0578372 -0.20773 0
0.0247631 -0.241774 0
-0.00510845 -0.271894 0
-0.0234045 -0.282611 0
-0.0217522 -0.258449 0
-0.0105009 -0.173036 0
0 0 0
0 0 0
-0.0103723 0.16834 0
-0.00703584 0.234025 0
0.0112017 0.238232 0
0.0455326 0.222138 0
0.0878678 0.195533 0
0.130118 0.168206 0
0.170612 0.141783 0
0.207678 0.117889 0
0.240602 0.0965427 0
0.268669 0.0777607 0
0.29194 0.0611096 0
0.310477 0.0461558 0
0.324395 0.032468 0
0.333812 0.0196149 0
0.338746 0.00716622 0
0.339215 -0.00530835 0
0.335069 -0.0182743 0
0.326154 -0.0321973 0
0.312155 -0.0476178 0
0.292755 -0.0650763 0
0.267592 -0.0852616 0
0.236304 -0.108863 0
0.19926 -0.136156 0
0.156826 -0.167417 0
0.110531 -0.201294 0
0.0619036 -0.236434 0
0.0207482 -0.260579 0
-0.00313173 -0.261472 0
-0.00996986 -0.190737 0
0 0 0
0 0 0
0.0118062 0.164881 0
0.0462033 0.212912 0
0.095447 0.198006 0
0.151793 0.174075 0
0.209143 0.146849 0
0.261398 0.122059 0
0.308017 0.100065 0
0.348462 0.081229 0
0.382853 0.065223 0
0.41131 0.0517188 0
0.434304 0.0401689 0
0.452304 0.0300257 0
0.465622 0.0209303 0
0.474572 0.012524 0
0.479253 0.00447244 0
0.479763 -0.00355887 0
0.475947 -0.0119287 0
0.467653 -0.020996 0
0.45445 -0.0311685 0
0.435913 -0.042854 0
0.411301 -0.0568106 0
0.379875 -0.0737963 0
0.341111 -0.0943447 0
0.294485 -0.118989 0
0.239875 -0.147997 0
0.177161 -0.181635 0
0.113434 -0.212768 0
0.0557879 -0.234259 0
0.0145378 -0.184029 0
0 0 0
2.77334e-30 0 0
0.0823895 0.113984 0
0.17029 0.142247 0
0.25552 0.125935 0
0.329897 0.106192 0
0.393799 0.0863582 0
0.447603 0.0697722 0
0.492394 0.0559701 0
0.529259 0.0444874 0
0.559232 0.035055 0
0.583351 0.0274038 0
0.602351 0.0210703 0
0.616965 0.0155913 0
0.627595 0.0107561 0
0.634643 0.00635446 0
0.638249 0.00218287 0
0.638551 -0.0019621 0
0.635415 -0.0062976 0
0.628704 -0.0110408 0
0.617989 -0.0164144 0
0.602838 -0.0226411 0
0.582375 -0.0303029 0
0.555718 -0.0399813 0
0.521503 -0.0520695 0
0.478362 -0.0669603 0
0.42454 -0.0855716 0
0.358282 -0.108822 0
0.27864 -0.133083 0
0.184667 -0.15473 0
0.0879305 -0.126217 0
2.77334e-30 0 0
0.25 0 0
0.359185 0.0481801 0
0.457473 0.0589651 0
0.540634 0.0504544 0
0.604436 0.0407478 0
0.653522 0.0315714 0
0.692536 0.0246512 0
0.723228 0.019336 0
0.747346 0.0149744 0
0.766146 0.0114951 0
0.780884 0.008827 0
0.792207 0.006714 0
0.800763 0.00490019 0
0.80687 0.00332088 0
0.810846 0.0019114 0
0.812807 0.000593419 0
0.812869 -0.000711368 0
0.810943 -0.00208625 0
0.806942 -0.0036145 0
0.800571 -0.00535754 0
0.791534 -0.00737676 0
0.779159 -0.00995907 0
0.762778 -0.0133914 0
0.740958 -0.0177985 0
0.712264 -0.0233054 0
0.674568 -0.0306838 0
0.625738 -0.0407056 0
0.559713 -0.052002 0
0.470429 -0.0632044 0
0.364866 -0.0529809 0
0.25 0 0
1 0 0
1 0 0
1 0 0
1 0 0
1 0 0
1 0 0
1 0 0
1 0 0
1 0 0
1 0 0
1 0 0
1 0 0
1 0 0
1 0 0
1 0 0
1 0 0
1 0 0
1 0 0
1 0 0
1 0 0
1 0 0
1 0 0
1 0 0
1 0 0
1 0 0
1 0 0
1 0 0
1 0 0
1 0 0
1 0 0
1 0 0
      </DataArray> 