<?xml version="1.0"?>
<VTKFile type="UnstructuredGrid">
  <UnstructuredGrid>
  <Piece NumberOfPoints="961"  NumberOfCells="225">
    <Points>
      <DataArray type="Float64" NumberOfComponents="3" format="ascii">
0 0 0
0.0333333 0 0
0.0666667 0 0
0.1 0 0
0.133333 0 0
0.166667 0 0
0.2 0 0
0.233333 0 0
0.266667 0 0
0.3 0 0
0.333333 0 0
0.366667 0 0
0.4 0 0
0.433333 0 0
0.466667 0 0
0.5 0 0
0.533333 0 0
0.566667 0 0
0.6 0 0
0.633333 0 0
0.666667 0 0
0.7 0 0
0.733333 0 0
0.766667 0 0
0.8 0 0
0.833333 0 0
0.866667 0 0
0.9 0 0
0.933333 0 0
0.966667 0 0
1 0 0
0 0.0333333 0
0.0333333 0.0333333 0
0.0666667 0.0333333 0
0.1 0.0333333 0
0.133333 0.0333333 0
0.166667 0.0333333 0
0.2 0.0333333 0
0.233333 0.0333333 0
0.266667 0.0333333 0
0.3 0.0333333 0
0.333333 0.0333333 0
0.366667 0.0333333 0
0.4 0.0333333 0
0.433333 0.0333333 0
0.466667 0.0333333 0
0.5 0.0333333 0
0.533333 0.0333333 0
0.566667 0.0333333 0
0.6 0.0333333 0
0.633333 0.0333333 0
0.666667 0.0333333 0
0.7 0.0333333 0
0.733333 0.0333333 0
0.766667 0.0333333 0
0.8 0.0333333 0
0.833333 0.0333333 0
0.866667 0.0333333 0
0.9 0.0333333 0
0.933333 0.0333333 0
0.966667 0.0333333 0
1 0.0333333 0
0 0.0666667 0
0.0333333 0.0666667 0
0.0666667 0.0666667 0
0.1 0.0666667 0
0.133333 0.0666667 0
0.166667 0.0666667 0
0.2 0.0666667 0
0.233333 0.0666667 0
0.266667 0.0666667 0
0.3 0.0666667 0
0.333333 0.0666667 0
0.366667 0.0666667 0
0.4 0.0666667 0
0.433333 0.0666667 0
0.466667 0.0666667 0
0.5 0.0666667 0
0.533333 0.0666667 0
0.566667 0.0666667 0
0.6 0.0666667 0
0.633333 0.0666667 0
0.666667 0.0666667 0
0.7 0.0666667 0
0.733333 0.0666667 0
0.766667 0.0666667 0
0.8 0.0666667 0
0.833333 0.0666667 0
0.866667 0.0666667 0
0.9 0.0666667 0
0.933333 0.0666667 0
0.966667 0.0666667 0
1 0.0666667 0
0 0.1 0
0.0333333 0.1 0
0.0666667 0.1 0
0.1 0.1 0
0.133333 0.1 0
0.166667 0.1 0
0.2 0.1 0
0.233333 0.1 0
0.266667 0.1 0
0.3 0.1 0
0.333333 0.1 0
0.366667 0.1 0
0.4 0.1 0
0.433333 0.1 0
0.466667 0.1 0
0.5 0.1 0
0.533333 0.1 0
0.566667 0.1 0
0.6 0.1 0
0.633333 0.1 0
0.666667 0.1 0
0.7 0.1 0
0.733333 0.1 0
0.766667 0.1 0
0.8 0.1 0
0.833333 0.1 0
0.866667 0.1 0
0.9 0.1 0
0.933333 0.1 0
0.966667 0.1 0
1 0.1 0
0 0.133333 0
0.0333333 0.133333 0
0.0666667 0.133333 0
0.1 0.133333 0
0.133333 0.133333 0
0.166667 0.133333 0
0.2 0.133333 0
0.233333 0.133333 0
0.266667 0.133333 0
0.3 0.133333 0
0.333333 0.133333 0
0.366667 0.133333 0
0.4 0.133333 0
0.433333 0.133333 0
0.466667 0.133333 0
0.5 0.133333 0
0.533333 0.133333 0
0.566667 0.133333 0
0.6 0.133333 0
0.633333 0.133333 0
0.666667 0.133333 0
0.7 0.133333 0
0.733333 0.133333 0
0.766667 0.133333 0
0.8 0.133333 0
0.833333 0.133333 0
0.866667 0.133333 0
0.9 0.133333 0
0.933333 0.133333 0
0.966667 0.133333 0
1 0.133333 0
0 0.166667 0
0.0333333 0.166667 0
0.0666667 0.166667 0
0.1 0.166667 0
0.133333 0.166667 0
0.166667 0.166667 0
0.2 0.166667 0
0.233333 0.166667 0
0.266667 0.166667 0
0.3 0.166667 0
0.333333 0.166667 0
0.366667 0.166667 0
0.4 0.166667 0
0.433333 0.166667 0
0.466667 0.166667 0
0.5 0.166667 0
0.533333 0.166667 0
0.566667 0.166667 0
0.6 0.166667 0
0.633333 0.166667 0
0.666667 0.166667 0
0.7 0.166667 0
0.733333 0.166667 0
0.766667 0.166667 0
0.8 0.166667 0
0.833333 0.166667 0
0.866667 0.166667 0
0.9 0.166667 0
0.933333 0.166667 0
0.966667 0.166667 0
1 0.166667 0
0 0.2 0
0.0333333 0.2 0
0.0666667 0.2 0
0.1 0.2 0
0.133333 0.2 0
0.166667 0.2 0
0.2 0.2 0
0.233333 0.2 0
0.266667 0.2 0
0.3 0.2 0
0.333333 0.2 0
0.366667 0.2 0
0.4 0.2 0
0.433333 0.2 0
0.466667 0.2 0
0.5 0.2 0
0.533333 0.2 0
0.566667 0.2 0
0.6 0.2 0
0.633333 0.2 0
0.666667 0.2 0
0.7 0.2 0
0.733333 0.2 0
0.766667 0.2 0
0.8 0.2 0
0.833333 0.2 0
0.866667 0.2 0
0.9 0.2 0
0.933333 0.2 0
0.966667 0.2 0
1 0.2 0
0 0.233333 0
0.0333333 0.233333 0
0.0666667 0.233333 0
0.1 0.233333 0
0.133333 0.233333 0
0.166667 0.233333 0
0.2 0.233333 0
0.233333 0.233333 0
0.266667 0.233333 0
0.3 0.233333 0
0.333333 0.233333 0
0.366667 0.233333 0
0.4 0.233333 0
0.433333 0.233333 0
0.466667 0.233333 0
0.5 0.233333 0
0.533333 0.233333 0
0.566667 0.233333 0
0.6 0.233333 0
0.633333 0.233333 0
0.666667 0.233333 0
0.7 0.233333 0
0.733333 0.233333 0
0.766667 0.233333 0
0.8 0.233333 0
0.833333 0.233333 0
0.866667 0.233333 0
0.9 0.233333 0
0.933333 0.233333 0
0.966667 0.233333 0
1 0.233333 0
0 0.266667 0
0.0333333 0.266667 0
0.0666667 0.266667 0
0.1 0.266667 0
0.133333 0.266667 0
0.166667 0.266667 0
0.2 0.266667 0
0.233333 0.266667 0
0.266667 0.266667 0
0.3 0.266667 0
0.333333 0.266667 0
0.366667 0.266667 0
0.4 0.266667 0
0.433333 0.266667 0
0.466667 0.266667 0
0.5 0.266667 0
0.533333 0.266667 0
0.566667 0.266667 0
0.6 0.266667 0
0.633333 0.266667 0
0.666667 0.266667 0
0.7 0.266667 0
0.733333 0.266667 0
0.766667 0.266667 0
0.8 0.266667 0
0.833333 0.266667 0
0.866667 0.266667 0
0.9 0.266667 0
0.933333 0.266667 0
0.966667 0.266667 0
1 0.266667 0
0 0.3 0
0.0333333 0.3 0
0.0666667 0.3 0
0.1 0.3 0
0.133333 0.3 0
0.166667 0.3 0
0.2 0.3 0
0.233333 0.3 0
0.266667 0.3 0
0.3 0.3 0
0.333333 0.3 0
0.366667 0.3 0
0.4 0.3 0
0.433333 0.3 0
0.466667 0.3 0
0.5 0.3 0
0.533333 0.3 0
0.566667 0.3 0
0.6 0.3 0
0.633333 0.3 0
0.666667 0.3 0
0.7 0.3 0
0.733333 0.3 0
0.766667 0.3 0
0.8 0.3 0
0.833333 0.3 0
0.866667 0.3 0
0.9 0.3 0
0.933333 0.3 0
0.966667 0.3 0
1 0.3 0
0 0.333333 0
0.0333333 0.333333 0
0.0666667 0.333333 0
0.1 0.333333 0
0.133333 0.333333 0
0.166667 0.333333 0
0.2 0.333333 0
0.233333 0.333333 0
0.266667 0.333333 0
0.3 0.333333 0
0.333333 0.333333 0
0.366667 0.333333 0
0.4 0.333333 0
0.433333 0.333333 0
0.466667 0.333333 0
0.5 0.333333 0
0.533333 0.333333 0
0.566667 0.333333 0
0.6 0.333333 0
0.633333 0.333333 0
0.666667 0.333333 0
0.7 0.333333 0
0.733333 0.333333 0
0.766667 0.333333 0
0.8 0.333333 0
0.833333 0.333333 0
0.866667 0.333333 0
0.9 0.333333 0
0.933333 0.333333 0
0.966667 0.333333 0
1 0.333333 0
0 0.366667 0
0.0333333 0.366667 0
0.0666667 0.366667 0
0.1 0.366667 0
0.133333 0.366667 0
0.166667 0.366667 0
0.2 0.366667 0
0.233333 0.366667 0
0.266667 0.366667 0
0.3 0.366667 0
0.333333 0.366667 0
0.366667 0.366667 0
0.4 0.366667 0
0.433333 0.366667 0
0.466667 0.366667 0
0.5 0.366667 0
0.533333 0.366667 0
0.566667 0.366667 0
0.6 0.366667 0
0.633333 0.366667 0
0.666667 0.366667 0
0.7 0.366667 0
0.733333 0.366667 0
0.766667 0.366667 0
0.8 0.366667 0
0.833333 0.366667 0
0.866667 0.366667 0
0.9 0.366667 0
0.933333 0.366667 0
0.966667 0.366667 0
1 0.366667 0
0 0.4 0
0.0333333 0.4 0
0.0666667 0.4 0
0.1 0.4 0
0.133333 0.4 0
0.166667 0.4 0
0.2 0.4 0
0.233333 0.4 0
0.266667 0.4 0
0.3 0.4 0
0.333333 0.4 0
0.366667 0.4 0
0.4 0.4 0
0.433333 0.4 0
0.466667 0.4 0
0.5 0.4 0
0.533333 0.4 0
0.566667 0.4 0
0.6 0.4 0
0.633333 0.4 0
0.666667 0.4 0
0.7 0.4 0
0.733333 0.4 0
0.766667 0.4 0
0.8 0.4 0
0.833333 0.4 0
0.866667 0.4 0
0.9 0.4 0
0.933333 0.4 0
0.966667 0.4 0
1 0.4 0
0 0.433333 0
0.0333333 0.433333 0
0.0666667 0.433333 0
0.1 0.433333 0
0.133333 0.433333 0
0.166667 0.433333 0
0.2 0.433333 0
0.233333 0.433333 0
0.266667 0.433333 0
0.3 0.433333 0
0.333333 0.433333 0
0.366667 0.433333 0
0.4 0.433333 0
0.433333 0.433333 0
0.466667 0.433333 0
0.5 0.433333 0
0.533333 0.433333 0
0.566667 0.433333 0
0.6 0.433333 0
0.633333 0.433333 0
0.666667 0.433333 0
0.7 0.433333 0
0.733333 0.433333 0
0.766667 0.433333 0
0.8 0.433333 0
0.833333 0.433333 0
0.866667 0.433333 0
0.9 0.433333 0
0.933333 0.433333 0
0.966667 0.433333 0
1 0.433333 0
0 0.466667 0
0.0333333 0.466667 0
0.0666667 0.466667 0
0.1 0.466667 0
0.133333 0.466667 0
0.166667 0.466667 0
0.2 0.466667 0
0.233333 0.466667 0
0.266667 0.466667 0
0.3 0.466667 0
0.333333 0.466667 0
0.366667 0.466667 0
0.4 0.466667 0
0.433333 0.466667 0
0.466667 0.466667 0
0.5 0.466667 0
0.533333 0.466667 0
0.566667 0.466667 0
0.6 0.466667 0
0.633333 0.466667 0
0.666667 0.466667 0
0.7 0.466667 0
0.733333 0.466667 0
0.766667 0.466667 0
0.8 0.466667 0
0.833333 0.466667 0
0.866667 0.466667 0
0.9 0.466667 0
0.933333 0.466667 0
0.966667 0.466667 0
1 0.466667 0
0 0.5 0
0.0333333 0.5 0
0.0666667 0.5 0
0.1 0.5 0
0.133333 0.5 0
0.166667 0.5 0
0.2 0.5 0
0.233333 0.5 0
0.266667 0.5 0
0.3 0.5 0
0.333333 0.5 0
0.366667 0.5 0
0.4 0.5 0
0.433333 0.5 0
0.466667 0.5 0
0.5 0.5 0
0.533333 0.5 0
0.566667 0.5 0
0.6 0.5 0
0.633333 0.5 0
0.666667 0.5 0
0.7 0.5 0
0.733333 0.5 0
0.766667 0.5 0
0.8 0.5 0
0.833333 0.5 0
0.866667 0.5 0
0.9 0.5 0
0.933333 0.5 0
0.966667 0.5 0
1 0.5 0
0 0.533333 0
0.0333333 0.533333 0
0.0666667 0.533333 0
0.1 0.533333 0
0.133333 0.533333 0
0.166667 0.533333 0
0.2 0.533333 0
0.233333 0.533333 0
0.266667 0.533333 0
0.3 0.533333 0
0.333333 0.533333 0
0.366667 0.533333 0
0.4 0.533333 0
0.433333 0.533333 0
0.466667 0.533333 0
0.5 0.533333 0
0.533333 0.533333 0
0.566667 0.533333 0
0.6 0.533333 0
0.633333 0.533333 0
0.666667 0.533333 0
0.7 0.533333 0
0.733333 0.533333 0
0.766667 0.533333 0
0.8 0.533333 0
0.833333 0.533333 0
0.866667 0.533333 0
0.9 0.533333 0
0.933333 0.533333 0
0.966667 0.533333 0
1 0.533333 0
0 0.566667 0
0.0333333 0.566667 0
0.0666667 0.566667 0
0.1 0.566667 0
0.133333 0.566667 0
0.166667 0.566667 0
0.2 0.566667 0
0.233333 0.566667 0
0.266667 0.566667 0
0.3 0.566667 0
0.333333 0.566667 0
0.366667 0.566667 0
0.4 0.566667 0
0.433333 0.566667 0
0.466667 0.566667 0
0.5 0.566667 0
0.533333 0.566667 0
0.566667 0.566667 0
0.6 0.566667 0
0.633333 0.566667 0
0.666667 0.566667 0
0.7 0.566667 0
0.733333 0.566667 0
0.766667 0.566667 0
0.8 0.566667 0
0.833333 0.566667 0
0.866667 0.566667 0
0.9 0.566667 0
0.933333 0.566667 0
0.966667 0.566667 0
1 0.566667 0
0 0.6 0
0.0333333 0.6 0
0.0666667 0.6 0
0.1 0.6 0
0.133333 0.6 0
0.166667 0.6 0
0.2 0.6 0
0.233333 0.6 0
0.266667 0.6 0
0.3 0.6 0
0.333333 0.6 0
0.366667 0.6 0
0.4 0.6 0
0.433333 0.6 0
0.466667 0.6 0
0.5 0.6 0
0.533333 0.6 0
0.566667 0.6 0
0.6 0.6 0
0.633333 0.6 0
0.666667 0.6 0
0.7 0.6 0
0.733333 0.6 0
0.766667 0.6 0
0.8 0.6 0
0.833333 0.6 0
0.866667 0.6 0
0.9 0.6 0
0.933333 0.6 0
0.966667 0.6 0
1 0.6 0
0 0.633333 0
0.0333333 0.633333 0
0.0666667 0.633333 0
0.1 0.633333 0
0.133333 0.633333 0
0.166667 0.633333 0
0.2 0.633333 0
0.233333 0.633333 0
0.266667 0.633333 0
[...]
    <PointData>
      <DataArray type="Float64" NumberOfComponents="3" Name="Velocity" format="ascii">
0 0 0
0 0 0
0 0 0
0 0 0
0 0 0
0 0 0
0 0 0
0 0 0
0 0 0
0 0 0
0 0 0
0 0 0
0 0 0
0 0 0
0 0 0
0 0 0
0 0 0
0 0 0
0 0 0
0 0 0
0 0 0
0 0 0
0 0 0
0 0 0
0 0 0
0 0 0
0 0 0
0 0 0
0 0 0
0 0 0
0 0 0
0 0 0
-0.000482489 0.000436856 0
-0.00145348 0.000969663 0
-0.00305635 0.00148911 0
-0.00543449 0.00188586 0
-0.00825373 0.0021195 0
-0.0111799 0.00214958 0
-0.0140944 0.00205175 0
-0.0168788 0.00190168 0
-0.01943 0.00169868 0
-0.021645 0.0014421 0
-0.0234885 0.00115277 0
-0.0249249 0.000851508 0
-0.0259305 0.000538897 0
-0.0264814 0.000215503 0
-0.0265712 -0.000112654 0
-0.0261934 -0.000439551 0
-0.0253626 -0.000754494 0
-0.0240934 -0.00104679 0
-0.0224251 -0.00131731 0
-0.0203965 -0.00156694 0
-0.0180562 -0.00176999 0
-0.0154523 -0.00190077 0
-0.0127012 -0.00197297 0
-0.00991896 -0.00200025 0
-0.00719594 -0.00191653 0
-0.00462233 -0.00165572 0
-0.00249543 -0.00126067 0
-0.00111255 -0.000774238 0
-0.000328987 -0.000314617 0
0 0 0
0 0 0
-0.000722459 0.0011159 0
-0.00305327 0.00274796 0
-0.00668299 0.00436259 0
-0.0113021 0.00542619 0
-0.0165056 0.00600297 0
-0.0218884 0.00615713 0
-0.0272075 0.00598377 0
-0.0322201 0.00557797 0
-0.0367881 0.00499036 0
-0.0407732 0.00427154 0
-0.044104 0.00345634 0
-0.0467086 0.00257958 0
-0.048537 0.00165293 0
-0.0495391 0.000688083 0
-0.0497026 -0.000292538 0
-0.0490152 -0.00126651 0
-0.0475008 -0.00220815 0
-0.0451833 -0.00309178 0
-0.0421369 -0.0038988 0
-0.0384359 -0.00461061 0
-0.0341859 -0.00519557 0
-0.0294926 -0.00562208 0
-0.0245106 -0.00585069 0
-0.0193945 -0.00584197 0
-0.0143862 -0.00554174 0
-0.00972787 -0.00489582 0
-0.00570579 -0.0038464 0
-0.00260637 -0.0023357 0
-0.000635737 -0.000881099 0
0 0 0
0 0 0
-0.00128251 0.00294058 0
-0.00505324 0.00632322 0
-0.0105838 0.00936942 0
-0.0171457 0.0113006 0
-0.0243304 0.0122944 0
-0.0317292 0.0125282 0
-0.0390098 0.0121494 0
-0.0458398 0.0113055 0
-0.0520636 0.0101079 0
-0.0575256 0.00866814 0
-0.062112 0.00703532 0
-0.0657089 0.00525857 0
-0.0682434 0.00337119 0
-0.0696422 0.00140645 0
-0.0698859 -0.000590497 0
-0.0689546 -0.00257451 0
-0.0668821 -0.00449505 0
-0.0637017 -0.00630157 0
-0.0595163 -0.00794347 0
-0.0544281 -0.00937013 0
-0.0486013 -0.0105404 0
-0.0421997 -0.0114132 0
-0.0353958 -0.0118976 0
-0.0283623 -0.0119026 0
-0.0214399 -0.0113546 0
-0.0149693 -0.0101797 0
-0.00921386 -0.00824792 0
-0.00443675 -0.00542936 0
-0.00118359 -0.00244104 0
0 0 0
0 0 0
-0.00272523 0.00681433 0
-0.00770722 0.0126838 0
-0.0144626 0.0172585 0
-0.0225079 0.0201888 0
-0.0313027 0.0216377 0
-0.0403063 0.0217682 0
-0.0491722 0.020902 0
-0.0575539 0.0193608 0
-0.065246 0.0172842 0
-0.0720432 0.0148117 0
-0.0777783 0.0120143 0
-0.0822839 0.00896285 0
-0.0854734 0.00572275 0
-0.0872601 0.00235931 0
-0.0876129 -0.00105737 0
-0.086501 -0.0044572 0
-0.0839738 -0.00774929 0
-0.080081 -0.0108428 0
-0.0749437 -0.0136503 0
-0.0686833 -0.0160847 0
-0.0615145 -0.0180682 0
-0.0536521 -0.0195234 0
-0.045324 -0.020378 0
-0.0367579 -0.0205597 0
-0.0282258 -0.0198341 0
-0.0199993 -0.0179667 0
-0.0126024 -0.014956 0
-0.00655897 -0.0108002 0
-0.00223589 -0.00573603 0
0 0 0
0 0 0
-0.00383364 0.0111604 0
-0.0100907 0.0197521 0
-0.0182422 0.0259302 0
-0.0277595 0.02985 0
-0.0380202 0.0317308 0
-0.0484022 0.0317921 0
-0.0585983 0.0304906 0
-0.0683012 0.0282829 0
-0.0772506 0.0253197 0
-0.0851858 0.0217512 0
-0.0919081 0.0176864 0
-0.0972186 0.0132342 0
-0.101008 0.00849035 0
-0.103169 0.00355084 0
-0.103652 -0.00147726 0
-0.102408 -0.00648683 0
-0.099497 -0.011338 0
-0.0949779 -0.0158907 0
-0.0889959 -0.0200162 0
-0.0816963 -0.0235856 0
-0.0733324 -0.0264715 0
-0.0641578 -0.0285464 0
-0.0544745 -0.0297736 0
-0.0445844 -0.0301167 0
-0.0346836 -0.0292268 0
-0.0249681 -0.0267552 0
-0.0160789 -0.0226829 0
-0.00865732 -0.0169908 0
-0.00314907 -0.00949213 0
0 0 0
0 0 0
-0.00339074 0.0144022 0
-0.011279 0.0254507 0
-0.0218455 0.0332847 0
-0.0332709 0.0380433 0
-0.0450805 0.0402716 0
-0.0567996 0.0405148 0
-0.0681918 0.0391641 0
-0.0790209 0.0366107 0
-0.0889928 0.0330144 0
-0.0978132 0.0285353 0
-0.105307 0.0233447 0
-0.111298 0.0176142 0
-0.11563 0.0114567 0
-0.118146 0.00498523 0
-0.118771 -0.00163423 0
-0.11743 -0.00823568 0
-0.114173 -0.0146281 0
-0.109049 -0.0206207 0
-0.102249 -0.0260379 0
-0.093962 -0.0307044 0
-0.0844621 -0.0344427 0
-0.0740248 -0.0370756 0
-0.0630268 -0.0385659 0
-0.0518448 -0.038877 0
-0.040753 -0.0377793 0
-0.0300259 -0.0350434 0
-0.019851 -0.030141 0
-0.0104161 -0.0225437 0
-0.00327957 -0.0124354 0
0 0 0
0 0 0
-0.00306117 0.0202692 0
-0.0120695 0.0347861 0
-0.0243269 0.0443997 0
-0.037135 0.0499591 0
-0.0502356 0.0523813 0
-0.0633702 0.0525835 0
-0.0761974 0.0508891 0
-0.0883758 0.0476215 0
-0.0995979 0.0430031 0
-0.109556 0.0372562 0
-0.118065 0.0305822 0
-0.124939 0.0231824 0
-0.129975 0.0151913 0
-0.132973 0.00674308 0
-0.133836 -0.00193539 0
-0.132464 -0.0106174 0
-0.128896 -0.0190386 0
-0.123172 -0.0269347 0
-0.115506 -0.0340684 0
-0.106116 -0.0402022 0
-0.095314 -0.0451079 0
-0.0834119 -0.048557 0
-0.0708501 -0.050457 0
-0.0580687 -0.0507155 0
-0.0455662 -0.0492851 0
-0.0338411 -0.0461187 0
-0.02263 -0.0403732 0
-0.0116693 -0.0312054 0
-0.00333425 -0.0179645 0
0 0 0
0 0 0
-0.00450959 0.0324909 0
-0.0132594 0.0527648 0
-0.0247406 0.0643533 0
-0.0374445 0.0707879 0
-0.0512375 0.0731811 0
-0.0659859 0.0726453 0
-0.0808597 0.0696321 0
-0.0950286 0.064593 0
-0.108191 0.0579202 0
-0.120046 0.050006 0
-0.130274 0.0409916 0
-0.138556 0.0310182 0
-0.144681 0.0202635 0
-0.148435 0.00890501 0
-0.149712 -0.00278781 0
-0.148408 -0.0145456 0
-0.144564 -0.025988 0
-0.138222 -0.0367347 0
-0.129569 -0.0464606 0
-0.118795 -0.0548403 0
-0.106299 -0.0615928 0
-0.0924779 -0.0664368 0
-0.0778136 -0.0691492 0
-0.062786 -0.0695071 0
-0.0482555 -0.0675377 0
-0.0350823 -0.0632685 0
-0.0231272 -0.0564223 0
-0.0122511 -0.0467222 0
-0.00401996 -0.0294781 0
0 0 0
0 0 0
-0.00528093 0.0418694 0
-0.013065 0.0669051 0
-0.0232742 0.0806016 0
-0.0358304 0.0884536 0
-0.0503267 0.0914904 0
-0.0663565 0.0907414 0
-0.0828029 0.0868667 0
-0.0985491 0.0805266 0
-0.113275 0.0722256 0
-0.126661 0.062468 0
-0.138279 0.0513592 0
-0.147704 0.0390043 0
-0.154725 0.0256462 0
-0.159133 0.0115279 0
-0.160823 -0.00303571 0
-0.159688 -0.0177297 0
-0.155759 -0.0320773 0
-0.149069 -0.0456016 0
-0.139772 -0.057871 0
-0.128018 -0.068454 0
-0.114258 -0.0770051 0
-0.0989389 -0.0831791 0
-0.082583 -0.0866218 0
-0.0657109 -0.0869789 0
-0.0494115 -0.0842401 0
-0.0347731 -0.0783946 0
-0.0221455 -0.0699165 0
-0.0118782 -0.0592794 0
-0.00436501 -0.0386013 0
0 0 0
0 0 0
-0.00292012 0.0392068 0
-0.00970286 0.0647251 0
-0.020115 0.0806009 0
-0.0339235 0.0908801 0
-0.0497439 0.0961288 0
-0.0661917 0.096913 0
-0.0826514 0.0940666 0
-0.0985073 0.088424 0
-0.113353 0.080379 0
-0.126781 0.0703255 0
-0.138428 0.0584711 0
-0.147932 0.0450232 0
-0.155083 0.0303122 0
-0.159673 0.0146686 0
-0.161591 -0.00152332 0
-0.160726 -0.017879 0
-0.157064 -0.0339071 0
-0.150587 -0.049116 0
-0.141449 -0.0629563 0
-0.129805 -0.0748784 0
-0.116033 -0.0844523 0
-0.100511 -0.0912483 0
-0.083824 -0.0948542 0
-0.066558 -0.0948581 0
-0.0496249 -0.0910948 0
-0.0339375 -0.0833991 0
-0.0204876 -0.072484 0
-0.0102673 -0.0590624 0
-0.00339773 -0.0369593 0
0 0 0
0 0 0
-0.00113666 0.0329091 0
-0.00761046 0.0576347 0
-0.0186417 0.0756973 0
-0.0334509 0.0886171 0
-0.049987 0.0964862 0
-0.0661995 0.0993965 0
-0.0820041 0.0982342 0
-0.0973167 0.0938856 0
-0.111644 0.0866205 0
-0.124491 0.076709 0
-0.135602 0.0645149 0
-0.144718 0.0504025 0
-0.151638 0.0347842 0
-0.156162 0.0180724 0
-0.158184 0.000719063 0
-0.157597 -0.0168241 0
-0.154349 -0.0340793 0
-0.148389 -0.0505688 0
-0.139861 -0.0656582 0
-0.128907 -0.0787128 0
-0.115797 -0.0891899 0
-0.100802 -0.0965466 0
-0.0845337 -0.100319 0
-0.0676033 -0.100045 0
-0.0506668 -0.0953793 0
-0.0343799 -0.0859799 0
-0.0202042 -0.0724414 0
-0.00960114 -0.0553585 0
-0.00279249 -0.0320913 0
0 0 0
0 0 0
-0.00364006 0.0313821 0
-0.0112255 0.0570439 0
-0.022233 0.0772373 0
-0.0361392 0.0922143 0
-0.0515542 0.101952 0
-0.0670878 0.106428 0
-0.0824599 0.106372 0
-0.0973908 0.102512 0
-0.111368 0.0951901 0
-0.123879 0.0847486 0
-0.134682 0.0716782 0
-0.143537 0.0564697 0
-0.150271 0.0395847 0
-0.154711 0.0214848 0
-0.156772 0.00266114 0
-0.156371 -0.0163954 0
-0.153486 -0.0351957 0
-0.148094 -0.0532507 0
-0.140267 -0.0699184 0
-0.130075 -0.0845567 0
-0.117725 -0.0964735 0
-0.103423 -0.104976 0
-0.0877089 -0.10949 0
-0.0711233 -0.109439 0
-0.054308 -0.104371 0
-0.0379052 -0.0938352 0
-0.0233463 -0.0781051 0
-0.0120624 -0.0574551 0
-0.0042237 -0.0315363 0
0 0 0
0 0 0
-0.00670891 0.0340648 0
-0.0157384 0.0625533 0
-0.0268784 0.0853006 0
-0.0399191 0.102142 0
-0.0543345 0.113186 0
-0.0695986 0.11854 0
-0.0850349 0.118808 0
-0.0999672 0.114594 0
-0.1139 0.106409 0
-0.12634 0.0947659 0
-0.137051 0.0802512 0
-0.145799 0.0634526 0
-0.152452 0.0448591 0
-0.156873 0.02496 0
-0.159004 0.00425703 0
-0.158786 -0.0167482 0
-0.15623 -0.0375411 0
-0.151344 -0.0576072 0
-0.144114 -0.0763093 0
-0.134523 -0.0930103 0
-0.122715 -0.106875 0
-0.108833 -0.11707 0
-0.0933253 -0.122861 0
-0.0766416 -0.123516 0
-0.0595186 -0.118445 0
-0.0426934 -0.107063 0
-0.027456 -0.0893004 0
-0.0150968 -0.0650908 0
-0.00586246 -0.0351015 0
0 0 0
0 0 0
-0.00662182 0.0403961 0
-0.0163396 0.0737637 0
-0.0285679 0.0999672 0
-0.042721 0.118871 0
-0.0582171 0.130846 0
-0.074474 0.136263 0
-0.0907451 0.135873 0
-0.106284 0.130424 0
-0.120617 0.1206 0
-0.13327 0.107082 0
-0.144088 0.0905244 0
-0.152913 0.0715792 0
-0.15965 0.0507531 0
-0.164203 0.0285524 0
-0.166527 0.00546088 0
-0.166578 -0.0180377 0
-0.164336 -0.0414002 0
-0.159784 -0.0640835 0
-0.15285 -0.085403 0
-0.143465 -0.104674 0
-0.131666 -0.120969 0
-0.117492 -0.13336 0
-0.101358 -0.140927 0
-0.083682 -0.14275 0
-0.0652687 -0.137977 0
-0.0469244 -0.125761 0
-0.0300757 -0.105852 0
-0.0161497 -0.0780041 0
-0.00587986 -0.0425942 0
0 0 0
0 0 0
-0.00549121 0.0480241 0
-0.0156393 0.0870513 0
-0.0292578 0.117069 0
-0.0451606 0.138065 0
-0.0623623 0.150751 0
-0.0798773 0.155836 0
-0.0970146 0.154335 0
-0.113083 0.147259 0
-0.127674 0.135474 0
-0.140382 0.119842 0
-0.151144 0.101066 0
-0.159898 0.0798463 0
-0.166604 0.0567005 0
-0.171223 0.0321454 0
-0.173723 0.00663083 0
-0.174073 -0.0193935 0
-0.172205 -0.0453785 0
-0.168052 -0.0707754 0
-0.161488 -0.0948468 0
-0.152388 -0.116855 0
-0.140679 -0.135806 0
-0.126287 -0.150702 0
-0.10957 -0.160393 0
-0.0908868 -0.163728 0
-0.0710916 -0.159532 0
-0.0510378 -0.14663 0
-0.0323734 -0.124563 0
-0.016746 -0.0928703 0
-0.00550506 -0.0513997 0
0 0 0
0 0 0
-0.00542955 0.0545967 0
-0.0162474 0.0987918 0
-0.0309049 0.132439 0
-0.0478537 0.155391 0
-0.0659304 0.168721 0
-0.083972 0.173499 0
-0.101267 0.170965 0
-0.117106 0.162359 0
-0.13123 0.148746 0
-0.143385 0.131192 0
-0.153567 0.110444 0
-0.161774 0.0872508 0
-0.168054 0.0621355 0
-0.172457 0.0356227 0
-0.174975 0.00812503 0
-0.175601 -0.0199451 0
-0.174238 -0.0480816 0
-0.170788 -0.0757785 0
-0.16504 -0.102288 0
-0.156783 -0.126863 0
-0.145857 -0.148439 0
-0.132105 -0.165952 0
-0.115721 -0.177964 0
-0.0968981 -0.183038 0
-0.0765204 -0.179674 0
-0.0554735 -0.166373 0
-0.035517 -0.142237 0
-0.0184106 -0.106365 0
-0.0059672 -0.0589035 0
0 0 0
0 0 0
-0.00588381 0.0614311 0
-0.0174939 0.110733 0
-0.0330123 0.147776 0
-0.0506212 0.172429 0
-0.0690264 0.186124 0
-0.0869339 0.190294 0
-0.10367 0.186474 0
-0.11856 0.176202 0
-0.131516 0.160724 0
-0.14245 0.141286 0
-0.151449 0.118693 0
-0.158598 0.0937498 0
-0.164045 0.0669654 0
-0.167937 0.0388486 0
-0.170302 0.00976033 0
-0.171171 -0.0199383 0
-0.170427 -0.0498187 0
-0.167953 -0.0794524 0
-0.16345 -0.108131 0
-0.156619 -0.135147 0
-0.147186 -0.159363 0
-0.13488 -0.179642 0
-0.119687 -0.194275 0
-0.101593 -0.201555 0
-0.0814032 -0.199548 0
-0.0599223 -0.18632 0
-0.0390203 -0.160429 0
-0.0205673 -0.120434 0
-0.00681119 -0.0668015 0
0 0 0
0 0 0
-0.00630101 0.0698446 0
-0.0187087 0.124624 0
-0.0350832 0.16478 0
-0.0532844 0.190758 0
-0.0717553 0.204329 0
-0.0889389 0.207263 0
-0.104387 0.201572 0
-0.117653 0.189269 0
-0.128764 0.171716 0
-0.137749 0.150279 0
-0.144879 0.125845 0
-0.150427 0.0993004 0
-0.154623 0.0710976 0
-0.157695 0.0416872 0
-0.159725 0.0113536 0
-0.160794 -0.0196188 0
-0.160766 -0.0508993 0
-0.159507 -0.0821569 0
-0.15666 -0.11278 0
-0.151868 -0.142158 0
-0.144655 -0.169072 0
-0.134544 -0.192303 0
-0.121341 -0.209962 0
-0.104849 -0.220158 0
-0.0855878 -0.220301 0
-0.0640748 -0.207802 0
-0.0423968 -0.180697 0
-0.02264 -0.137024 0
-0.00758192 -0.0767895 0
0 0 0
0 0 0
-0.00674665 0.0792456 0
-0.02008 0.13974 0
-0.037277 0.18269 0
-0.0556147 0.209305 0
-0.0734404 0.221953 0
-0.0891012 0.223005 0
-0.102387 0.214948 0
-0.113088 0.20027 0
-0.121429 0.180482 0
-0.127635 0.157096 0
-0.132177 0.131035 0
-0.135527 0.103222 0
-0.138 0.0740266 0
-0.139913 0.0438219 0
-0.141398 0.0127887 0
-0.14259 -0.0188918 0
-0.143351 -0.0510116 0
-0.143542 -0.0833628 0
-0.142763 -0.115465 0
-0.140611 -0.146839 0
-0.136405 -0.176265 0
-0.129466 -0.202521 0
-0.119316 -0.223532 0
-0.105482 -0.237219 0
-0.0881487 -0.240317 0
-0.0674994 -0.229561 0
-0.045657 -0.202159 0
-0.0247438 -0.155321 0
-0.00833358 -0.0882131 0
0 0 0
0 0 0
-0.00728624 0.0890425 0
-0.0217957 0.155359 0
-0.0397532 0.200743 0
-0.0573837 0.226993 0
-0.073405 0.237615 0
-0.0865349 0.236119 0
-0.0966356 0.225291 0
-0.10357 0.207917 0
-0.107968 0.185779 0
-0.110464 0.160662 0
-0.11166 0.133401 0
-0.112161 0.104832 0
-0.11239 0.0752469 0
-0.112769 0.0449359 0
-0.113475 0.0139495 0
-0.114682 -0.0176621 0
-0.116278 -0.049844 0
-0.118151 -0.0825411 0
-0.11985 -0.115417 0
-0.120927 -0.148135 0
-0.120581 -0.179641 0
-0.118013 -0.20888 0
-0.112247 -0.233491 0
-0.102309 -0.251111 0
-0.0881603 -0.25798 0
-0.0697641 -0.250339 0
-0.0488115 -0.223934 0
-0.0269939 -0.174511 0
-0.00912033 -0.100418 0
0 0 0
0 0 0
-0.00817609 0.0998741 0
-0.0235254 0.171571 0
-0.0414984 0.21822 0
-0.0575456 0.242947 0
-0.0706562 0.250462 0
-0.079819 0.245469 0
-0.0852238 0.231227 0
-0.08706 0.210995 0
-0.0863824 0.186688 0
-0.0842459 0.160222 0
-0.0813617 0.132301 0
-0.0784414 0.10363 0
-0.0759917 0.0743873 0
-0.0745195 0.044755 0
-0.074231 0.0146432 0
-0.0753323 -0.0160375 0
-0.0777531 -0.0473949 0
-0.0814232 -0.0795366 0
-0.0858804 -0.112304 0
-0.0906624 -0.145538 0
-0.0949091 -0.178428 0
-0.0977603 -0.210162 0
-0.097755 -0.2383 0
-0.0934322 -0.2604 0
-0.0842219 -0.272057 0
-0.069554 -0.268865 0
-0.0507201 -0.244943 0
-0.0290117 -0.194412 0
-0.0101859 -0.113891 0
0 0 0
0 0 0
-0.00967249 0.112379 0
-0.0249388 0.18847 0
-0.0414995 0.234399 0
-0.055055 0.256293 0
-0.064201 0.259638 0
-0.0675329 0.249917 0
-0.0662428 0.231384 0
-0.061523 0.208292 0
-0.0546725 0.182288 0
-0.0469907 0.155023 0
-0.0393131 0.127096 0
-0.0324754 0.0991105 0
-0.027002 0.0710765 0
-0.0234173 0.0430048 0
-0.0219441 0.0146769 0
-0.0228054 -0.0141257 0
-0.0259806 -0.0436629 0
-0.0314494 -0.0741942 0
-0.0388103 -0.105795 0
-0.0476621 -0.138542 0
-0.0571157 -0.171854 0
-0.0662818 -0.205151 0
-0.0734618 -0.236421 0
-0.0769571 -0.263654 0
-0.0749328 -0.281314 0
-0.0655542 -0.283867 0
-0.0502424 -0.26411 0
-0.0304187 -0.214842 0
-0.0117742 -0.129119 0
0 0 0
0 0 0
-0.0106078 0.125232 0
-0.0256321 0.204616 0
-0.0399928 0.247853 0
-0.0486101 0.264646 0
-0.0507849 0.261974 0
-0.0458183 0.246817 0
-0.0359168 0.224066 0
-0.0232869 0.198614 0
-0.0093579 0.171682 0
0.00444072 0.144491 0
0.0172357 0.117488 0
0.0281537 0.0911183 0
0.0367242 0.0652143 0
0.0424768 0.0396067 0
0.0451975 0.0139685 0
0.0446726 -0.0120273 0
0.0408701 -0.038764 0
0.0337581 -0.0666245 0
0.0236112 -0.0959165 0
0.0107042 -0.126948 0
-0.00415405 -0.15941 0
-0.0201547 -0.192997 0
-0.0355733 -0.226352 0
-0.0486852 -0.258121 0
-0.0564598 -0.282171 0
-0.0558664 -0.292369 0
-0.0471557 -0.279409 0
-0.0305788 -0.233987 0
-0.012679 -0.144663 0
0 0 0
0 0 0
-0.00981429 0.137108 0
-0.0252013 0.218573 0
-0.037215 0.257156 0
-0.0369091 0.265621 0
-0.0271533 0.254299 0
-0.0108172 0.233519 0
0.00953032 0.207577 0
0.0313201 0.18077 0
0.0530424 0.153971 0
0.0731876 0.128055 0
0.0910348 0.103177 0
0.105863 0.0794961 0
0.117333 0.0567009 0
0.125102 0.0344823 0
0.129005 0.0124358 0
0.128875 -0.00984307 0
0.12463 -0.0328144 0
0.116187 -0.0569383 0
0.103636 -0.0826923 0
0.0870672 -0.110554 0
0.0670228 -0.140586 0
0.0440435 -0.172851 0
0.0197047 -0.206591 0
-0.00441846 -0.241051 0
-0.0249695 -0.271047 0
-0.0385921 -0.291394 0
-0.0412372 -0.288814 0
-0.0288558 -0.25003 0
-0.0116945 -0.15908 0
0 0 0
0 0 0
-0.00909313 0.150662 0
-0.0200512 0.229029 0
-0.0231607 0.256342 0
-0.00870844 0.25384 0
0.0166245 0.233841 0
0.046157 0.208666 0
0.0775142 0.181332 0
0.108321 0.154855 0
0.137226 0.129741 0
0.162876 0.106497 0
0.184858 0.0849589 0
0.202756 0.0649603 0
0.216419 0.0461071 0
0.225697 0.0280047 0
0.230497 0.010219 0
0.230728 -0.00768412 0
0.226268 -0.0261858 0
0.216993 -0.045767 0
0.202793 -0.0669854 0
0.183555 -0.0903984 0
0.159426 -0.116432 0
0.13055 -0.145511 0
0.098095 -0.177421 0
0.0632273 -0.211949 0
0.0288053 -0.245728 0
-0.00231291 -0.275392 0
-0.021694 -0.285465 0
-0.0209044 -0.260471 0
-0.0102409 -0.174089 0
0 0 0
0 0 0
-0.0102454 0.168548 0
-0.00658623 0.234675 0
0.012175 0.239446 0
0.0472355 0.223921 0
0.0904794 0.19783 0
0.133791 0.170902 0
0.175451 0.144745 0
0.213741 0.120962 0
0.247891 0.0995745 0
0.277133 0.0806014 0
0.301477 0.0636249 0
0.320933 0.0482276 0
0.33558 0.0340036 0
0.345498 0.0205471 0
0.35069 0.00745856 0
0.351156 -0.00566169 0
0.346753 -0.0192499 0
0.337335 -0.0337425 0
0.322614 -0.0496585 0
0.302298 -0.0675173 0
0.276067 -0.0879969 0
0.243603 -0.111776 0
0.205321 -0.139126 0
0.161636 -0.17032 0
0.114132 -0.204002 0
0.0643898 -0.238816 0
0.0222669 -0.262502 0
-0.0023794 -0.262806 0
-0.00973858 -0.19141 0
0 0 0
0 0 0
0.0118703 0.164928 0
0.0464664 0.213214 0
0.0960729 0.198673 0
0.152974 0.175119 0
0.21105 0.148239 0
0.26418 0.123717 0
0.311781 0.101903 0
0.353269 0.0831447 0
0.388714 0.0671168 0
0.418186 0.0534932 0
0.442109 0.0417379 0
0.460905 0.0313144 0
0.474856 0.0218808 0
0.484241 0.0130951 0
0.489146 0.00464262 0
0.489655 -0.00379135 0
0.485622 -0.0125471 0
0.476899 -0.0219651 0
0.463083 -0.0324399 0
0.443771 -0.0443664 0
0.41826 -0.0584967 0
0.385848 -0.0755827 0
0.346051 -0.0961565 0
0.298387 -0.12075 0
0.242779 -0.149629 0
0.179151 -0.183056 0
0.114638 -0.213896 0
0.0563782 -0.235012 0
0.014717 -0.184386 0
0 0 0
2.77334e-30 0 0
0.0823953 0.113966 0
0.17038 0.142349 0
0.255814 0.126229 0
0.330559 0.106689 0
0.394974 0.0870411 0
0.44942 0.0706003 0
0.494946 0.0568951 0
0.532598 0.0454547 0
0.563373 0.0360118 0
0.588263 0.0282993 0
0.607967 0.0218602 0
0.623184 0.0162373 0
0.63429 0.0112292 0
0.641661 0.00663427 0
0.645428 0.0022594 0
0.645722 -0.00208864 0
0.642413 -0.00661759 0
0.635371 -0.0115352 0
0.624188 -0.0170577 0
0.608454 -0.0234014 0
0.587319 -0.0311454 0
0.559931 -0.040869 0
0.524955 -0.0529646 0
0.481058 -0.0678244 0
0.426516 -0.0863657 0
0.359604 -0.109505 0
0.279412 -0.133615 0
0.185027 -0.155065 0
0.0880305 -0.126359 0
2.77334e-30 0 0
0.25 0 0
0.359161 0.0481581 0
0.457457 0.0589782 0
0.540692 0.0505328 0
0.604673 0.0408943 0
0.654031 0.0317804 0
0.693398 0.0249088 0
0.724501 0.0196259 0
0.749064 0.0152778 0
0.768317 0.0117945 0
0.783491 0.00910605 0
0.795211 0.00695863 0
0.804104 0.00509846 0
0.810473 0.00346384 0
0.814625 0.00199307 0
0.816669 0.00061112 0
0.816716 -0.000757029 0
0.814685 -0.00219174 0
0.810491 -0.00377337 0
0.803852 -0.00556131 0
0.794485 -0.00761494 0
0.781735 -0.0102206 0
0.764949 -0.0136647 0
0.742712 -0.0180718 0
0.71361 -0.0235663 0
0.675528 -0.0309204 0
0.626353 -0.0409063 0
0.560046 -0.0521525 0
0.470568 -0.0632875 0
0.364894 -0.0530053 0
0.25 0 0
1 0 0
1 0 0
1 0 0
1 0 0
1 0 0
1 0 0
1 0 0
1 0 0
1 0 0
1 0 0
1 0 0
1 0 0
1 0 0
1 0 0
1 0 0
1 0 0
1 0 0
1 0 0
1 0 0
1 0 0
1 0 0
1 0 0
1 0 0
1 0 0
1 0 0
1 0 0
1 0 0
1 0 0
1 0 0
1 0 0
1 0 0
      </DataArray> 
      <DataArray type="Float64" NumberOfComponents="3" Name="Real Velocity" format="ascii">
0 0 0
0 0 0
0 0 0
0 0 0
0 0 0
0 0 0