<?xml version="1.0"?>
<VTKFile type="UnstructuredGrid">
  <UnstructuredGrid>
  <Piece NumberOfPoints="961"  NumberOfCells="225">
    <Points>
      <DataArray type="Float64" NumberOfComponents="3" format="ascii">
0 0 0
0.0333333 0 0
0.0666667 0 0
0.1 0 0
0.133333 0 0
0.166667 0 0
0.2 0 0
0.233333 0 0
0.266667 0 0
0.3 0 0
0.333333 0 0
0.366667 0 0
0.4 0 0
0.433333 0 0
0.466667 0 0
0.5 0 0
0.533333 0 0
0.566667 0 0
0.6 0 0
0.633333 0 0
0.666667 0 0
0.7 0 0
0.733333 0 0
0.766667 0 0
0.8 0 0
0.833333 0 0
0.866667 0 0
0.9 0 0
0.933333 0 0
0.966667 0 0
1 0 0
0 0.0333333 0
0.0333333 0.0333333 0
0.0666667 0.0333333 0
0.1 0.0333333 0
0.133333 0.0333333 0
0.166667 0.0333333 0
0.2 0.0333333 0
0.233333 0.0333333 0
0.266667 0.0333333 0
0.3 0.0333333 0
0.333333 0.0333333 0
0.366667 0.0333333 0
0.4 0.0333333 0
0.433333 0.0333333 0
0.466667 0.0333333 0
0.5 0.0333333 0
0.533333 0.0333333 0
0.566667 0.0333333 0
0.6 0.0333333 0
0.633333 0.0333333 0
0.666667 0.0333333 0
0.7 0.0333333 0
0.733333 0.0333333 0
0.766667 0.0333333 0
0.8 0.0333333 0
0.833333 0.0333333 0
0.866667 0.0333333 0
0.9 0.0333333 0
0.933333 0.0333333 0
0.966667 0.0333333 0
1 0.0333333 0
0 0.0666667 0
0.0333333 0.0666667 0
0.0666667 0.0666667 0
0.1 0.0666667 0
0.133333 0.0666667 0
0.166667 0.0666667 0
0.2 0.0666667 0
0.233333 0.0666667 0
0.266667 0.0666667 0
0.3 0.0666667 0
0.333333 0.0666667 0
0.366667 0.0666667 0
0.4 0.0666667 0
0.433333 0.0666667 0
0.466667 0.0666667 0
0.5 0.0666667 0
0.533333 0.0666667 0
0.566667 0.0666667 0
0.6 0.0666667 0
0.633333 0.0666667 0
0.666667 0.0666667 0
0.7 0.0666667 0
0.733333 0.0666667 0
0.766667 0.0666667 0
0.8 0.0666667 0
0.833333 0.0666667 0
0.866667 0.0666667 0
0.9 0.0666667 0
0.933333 0.0666667 0
0.966667 0.0666667 0
1 0.0666667 0
0 0.1 0
0.0333333 0.1 0
0.0666667 0.1 0
0.1 0.1 0
0.133333 0.1 0
0.166667 0.1 0
0.2 0.1 0
0.233333 0.1 0
0.266667 0.1 0
0.3 0.1 0
0.333333 0.1 0
0.366667 0.1 0
0.4 0.1 0
0.433333 0.1 0
0.466667 0.1 0
0.5 0.1 0
0.533333 0.1 0
0.566667 0.1 0
0.6 0.1 0
0.633333 0.1 0
0.666667 0.1 0
0.7 0.1 0
0.733333 0.1 0
0.766667 0.1 0
0.8 0.1 0
0.833333 0.1 0
0.866667 0.1 0
0.9 0.1 0
0.933333 0.1 0
0.966667 0.1 0
1 0.1 0
0 0.133333 0
0.0333333 0.133333 0
0.0666667 0.133333 0
0.1 0.133333 0
0.133333 0.133333 0
0.166667 0.133333 0
0.2 0.133333 0
0.233333 0.133333 0
0.266667 0.133333 0
0.3 0.133333 0
0.333333 0.133333 0
0.366667 0.133333 0
0.4 0.133333 0
0.433333 0.133333 0
0.466667 0.133333 0
0.5 0.133333 0
0.533333 0.133333 0
0.566667 0.133333 0
0.6 0.133333 0
0.633333 0.133333 0
0.666667 0.133333 0
0.7 0.133333 0
0.733333 0.133333 0
0.766667 0.133333 0
0.8 0.133333 0
0.833333 0.133333 0
0.866667 0.133333 0
0.9 0.133333 0
0.933333 0.133333 0
0.966667 0.133333 0
1 0.133333 0
0 0.166667 0
0.0333333 0.166667 0
0.0666667 0.166667 0
0.1 0.166667 0
0.133333 0.166667 0
0.166667 0.166667 0
0.2 0.166667 0
0.233333 0.166667 0
0.266667 0.166667 0
0.3 0.166667 0
0.333333 0.166667 0
0.366667 0.166667 0
0.4 0.166667 0
0.433333 0.166667 0
0.466667 0.166667 0
0.5 0.166667 0
0.533333 0.166667 0
0.566667 0.166667 0
0.6 0.166667 0
0.633333 0.166667 0
0.666667 0.166667 0
0.7 0.166667 0
0.733333 0.166667 0
0.766667 0.166667 0
0.8 0.166667 0
0.833333 0.166667 0
0.866667 0.166667 0
0.9 0.166667 0
0.933333 0.166667 0
0.966667 0.166667 0
1 0.166667 0
0 0.2 0
0.0333333 0.2 0
0.0666667 0.2 0
0.1 0.2 0
0.133333 0.2 0
0.166667 0.2 0
0.2 0.2 0
0.233333 0.2 0
0.266667 0.2 0
0.3 0.2 0
0.333333 0.2 0
0.366667 0.2 0
0.4 0.2 0
0.433333 0.2 0
0.466667 0.2 0
0.5 0.2 0
0.533333 0.2 0
0.566667 0.2 0
0.6 0.2 0
0.633333 0.2 0
0.666667 0.2 0
0.7 0.2 0
0.733333 0.2 0
0.766667 0.2 0
0.8 0.2 0
0.833333 0.2 0
0.866667 0.2 0
0.9 0.2 0
0.933333 0.2 0
0.966667 0.2 0
1 0.2 0
0 0.233333 0
0.0333333 0.233333 0
0.0666667 0.233333 0
0.1 0.233333 0
0.133333 0.233333 0
0.166667 0.233333 0
0.2 0.233333 0
0.233333 0.233333 0
0.266667 0.233333 0
0.3 0.233333 0
0.333333 0.233333 0
0.366667 0.233333 0
0.4 0.233333 0
0.433333 0.233333 0
0.466667 0.233333 0
0.5 0.233333 0
0.533333 0.233333 0
0.566667 0.233333 0
0.6 0.233333 0
0.633333 0.233333 0
0.666667 0.233333 0
0.7 0.233333 0
0.733333 0.233333 0
0.766667 0.233333 0
0.8 0.233333 0
0.833333 0.233333 0
0.866667 0.233333 0
0.9 0.233333 0
0.933333 0.233333 0
0.966667 0.233333 0
1 0.233333 0
0 0.266667 0
0.0333333 0.266667 0
0.0666667 0.266667 0
0.1 0.266667 0
0.133333 0.266667 0
0.166667 0.266667 0
0.2 0.266667 0
0.233333 0.266667 0
0.266667 0.266667 0
0.3 0.266667 0
0.333333 0.266667 0
0.366667 0.266667 0
0.4 0.266667 0
0.433333 0.266667 0
0.466667 0.266667 0
0.5 0.266667 0
0.533333 0.266667 0
0.566667 0.266667 0
0.6 0.266667 0
0.633333 0.266667 0
0.666667 0.266667 0
0.7 0.266667 0
0.733333 0.266667 0
0.766667 0.266667 0
0.8 0.266667 0
0.833333 0.266667 0
0.866667 0.266667 0
0.9 0.266667 0
0.933333 0.266667 0
0.966667 0.266667 0
1 0.266667 0
0 0.3 0
0.0333333 0.3 0
0.0666667 0.3 0
0.1 0.3 0
0.133333 0.3 0
0.166667 0.3 0
0.2 0.3 0
0.233333 0.3 0
0.266667 0.3 0
0.3 0.3 0
0.333333 0.3 0
0.366667 0.3 0
0.4 0.3 0
0.433333 0.3 0
0.466667 0.3 0
0.5 0.3 0
0.533333 0.3 0
0.566667 0.3 0
0.6 0.3 0
0.633333 0.3 0
0.666667 0.3 0
0.7 0.3 0
0.733333 0.3 0
0.766667 0.3 0
0.8 0.3 0
0.833333 0.3 0
0.866667 0.3 0
0.9 0.3 0
0.933333 0.3 0
0.966667 0.3 0
1 0.3 0
0 0.333333 0
0.0333333 0.333333 0
0.0666667 0.333333 0
0.1 0.333333 0
0.133333 0.333333 0
0.166667 0.333333 0
0.2 0.333333 0
0.233333 0.333333 0
0.266667 0.333333 0
0.3 0.333333 0
0.333333 0.333333 0
0.366667 0.333333 0
0.4 0.333333 0
0.433333 0.333333 0
0.466667 0.333333 0
0.5 0.333333 0
0.533333 0.333333 0
0.566667 0.333333 0
0.6 0.333333 0
0.633333 0.333333 0
0.666667 0.333333 0
0.7 0.333333 0
0.733333 0.333333 0
0.766667 0.333333 0
0.8 0.333333 0
0.833333 0.333333 0
0.866667 0.333333 0
0.9 0.333333 0
0.933333 0.333333 0
0.966667 0.333333 0
1 0.333333 0
0 0.366667 0
0.0333333 0.366667 0
0.0666667 0.366667 0
0.1 0.366667 0
0.133333 0.366667 0
0.166667 0.366667 0
0.2 0.366667 0
0.233333 0.366667 0
0.266667 0.366667 0
0.3 0.366667 0
0.333333 0.366667 0
0.366667 0.366667 0
0.4 0.366667 0
0.433333 0.366667 0
0.466667 0.366667 0
0.5 0.366667 0
0.533333 0.366667 0
0.566667 0.366667 0
0.6 0.366667 0
0.633333 0.366667 0
0.666667 0.366667 0
0.7 0.366667 0
0.733333 0.366667 0
0.766667 0.366667 0
0.8 0.366667 0
0.833333 0.366667 0
0.866667 0.366667 0
0.9 0.366667 0
0.933333 0.366667 0
0.966667 0.366667 0
1 0.366667 0
0 0.4 0
0.0333333 0.4 0
0.0666667 0.4 0
0.1 0.4 0
0.133333 0.4 0
0.166667 0.4 0
0.2 0.4 0
0.233333 0.4 0
0.266667 0.4 0
0.3 0.4 0
0.333333 0.4 0
0.366667 0.4 0
0.4 0.4 0
0.433333 0.4 0
0.466667 0.4 0
0.5 0.4 0
0.533333 0.4 0
0.566667 0.4 0
0.6 0.4 0
0.633333 0.4 0
0.666667 0.4 0
0.7 0.4 0
0.733333 0.4 0
0.766667 0.4 0
0.8 0.4 0
0.833333 0.4 0
0.866667 0.4 0
0.9 0.4 0
0.933333 0.4 0
0.966667 0.4 0
1 0.4 0
0 0.433333 0
0.0333333 0.433333 0
0.0666667 0.433333 0
0.1 0.433333 0
0.133333 0.433333 0
0.166667 0.433333 0
0.2 0.433333 0
0.233333 0.433333 0
0.266667 0.433333 0
0.3 0.433333 0
0.333333 0.433333 0
0.366667 0.433333 0
0.4 0.433333 0
0.433333 0.433333 0
0.466667 0.433333 0
0.5 0.433333 0
0.533333 0.433333 0
0.566667 0.433333 0
0.6 0.433333 0
0.633333 0.433333 0
0.666667 0.433333 0
0.7 0.433333 0
0.733333 0.433333 0
0.766667 0.433333 0
0.8 0.433333 0
0.833333 0.433333 0
0.866667 0.433333 0
0.9 0.433333 0
0.933333 0.433333 0
0.966667 0.433333 0
1 0.433333 0
0 0.466667 0
0.0333333 0.466667 0
0.0666667 0.466667 0
0.1 0.466667 0
0.133333 0.466667 0
0.166667 0.466667 0
0.2 0.466667 0
0.233333 0.466667 0
0.266667 0.466667 0
0.3 0.466667 0
0.333333 0.466667 0
0.366667 0.466667 0
0.4 0.466667 0
0.433333 0.466667 0
0.466667 0.466667 0
0.5 0.466667 0
0.533333 0.466667 0
0.566667 0.466667 0
0.6 0.466667 0
0.633333 0.466667 0
0.666667 0.466667 0
0.7 0.466667 0
0.733333 0.466667 0
0.766667 0.466667 0
0.8 0.466667 0
0.833333 0.466667 0
0.866667 0.466667 0
0.9 0.466667 0
0.933333 0.466667 0
0.966667 0.466667 0
1 0.466667 0
0 0.5 0
0.0333333 0.5 0
0.0666667 0.5 0
0.1 0.5 0
0.133333 0.5 0
0.166667 0.5 0
0.2 0.5 0
0.233333 0.5 0
0.266667 0.5 0
0.3 0.5 0
0.333333 0.5 0
0.366667 0.5 0
0.4 0.5 0
0.433333 0.5 0
0.466667 0.5 0
0.5 0.5 0
0.533333 0.5 0
0.566667 0.5 0
0.6 0.5 0
0.633333 0.5 0
0.666667 0.5 0
0.7 0.5 0
0.733333 0.5 0
0.766667 0.5 0
0.8 0.5 0
0.833333 0.5 0
0.866667 0.5 0
0.9 0.5 0
0.933333 0.5 0
0.966667 0.5 0
1 0.5 0
0 0.533333 0
0.0333333 0.533333 0
0.0666667 0.533333 0
0.1 0.533333 0
0.133333 0.533333 0
0.166667 0.533333 0
0.2 0.533333 0
0.233333 0.533333 0
0.266667 0.533333 0
0.3 0.533333 0
0.333333 0.533333 0
0.366667 0.533333 0
0.4 0.533333 0
0.433333 0.533333 0
0.466667 0.533333 0
0.5 0.533333 0
0.533333 0.533333 0
0.566667 0.533333 0
0.6 0.533333 0
0.633333 0.533333 0
0.666667 0.533333 0
0.7 0.533333 0
0.733333 0.533333 0
0.766667 0.533333 0
0.8 0.533333 0
0.833333 0.533333 0
0.866667 0.533333 0
0.9 0.533333 0
0.933333 0.533333 0
0.966667 0.533333 0
1 0.533333 0
0 0.566667 0
0.0333333 0.566667 0
0.0666667 0.566667 0
0.1 0.566667 0
0.133333 0.566667 0
0.166667 0.566667 0
0.2 0.566667 0
0.233333 0.566667 0
0.266667 0.566667 0
0.3 0.566667 0
0.333333 0.566667 0
0.366667 0.566667 0
0.4 0.566667 0
0.433333 0.566667 0
0.466667 0.566667 0
0.5 0.566667 0
0.533333 0.566667 0
0.566667 0.566667 0
0.6 0.566667 0
0.633333 0.566667 0
0.666667 0.566667 0
0.7 0.566667 0
0.733333 0.566667 0
0.766667 0.566667 0
0.8 0.566667 0
0.833333 0.566667 0
0.866667 0.566667 0
0.9 0.566667 0
0.933333 0.566667 0
0.966667 0.566667 0
1 0.566667 0
0 0.6 0
0.0333333 0.6 0
0.0666667 0.6 0
0.1 0.6 0
0.133333 0.6 0
0.166667 0.6 0
0.2 0.6 0
0.233333 0.6 0
0.266667 0.6 0
0.3 0.6 0
0.333333 0.6 0
0.366667 0.6 0
0.4 0.6 0
0.433333 0.6 0
0.466667 0.6 0
0.5 0.6 0
0.533333 0.6 0
0.566667 0.6 0
0.6 0.6 0
0.633333 0.6 0
0.666667 0.6 0
0.7 0.6 0
0.733333 0.6 0
0.766667 0.6 0
0.8 0.6 0
0.833333 0.6 0
0.866667 0.6 0
0.9 0.6 0
0.933333 0.6 0
0.966667 0.6 0
1 0.6 0
0 0.633333 0
0.0333333 0.633333 0
0.0666667 0.633333 0
0.1 0.633333 0
0.133333 0.633333 0
0.166667 0.633333 0
0.2 0.633333 0
0.233333 0.633333 0
0.266667 0.633333 0
[...]
    <PointData>
      <DataArray type="Float64" NumberOfComponents="3" Name="Velocity" format="ascii">
0 0 0
0 0 0
0 0 0
0 0 0
0 0 0
0 0 0
0 0 0
0 0 0
0 0 0
0 0 0
0 0 0
0 0 0
0 0 0
0 0 0
0 0 0
0 0 0
0 0 0
0 0 0
0 0 0
0 0 0
0 0 0
0 0 0
0 0 0
0 0 0
0 0 0
0 0 0
0 0 0
0 0 0
0 0 0
0 0 0
0 0 0
0 0 0
-0.000971136 0.000951453 0
-0.00237118 0.00135284 0
-0.00409233 0.00147608 0
-0.00602675 0.00159309 0
-0.00806443 0.00166414 0
-0.0100954 0.0016495 0
-0.0121144 0.00158187 0
-0.0141163 0.00149396 0
-0.0159974 0.00136261 0
-0.0176539 0.0011647 0
-0.0190419 0.000927913 0
-0.0201177 0.000679959 0
-0.0208654 0.000423812 0
-0.0212694 0.000162444 0
-0.0213256 -0.000101421 0
-0.0210302 -0.000365056 0
-0.0203912 -0.000621134 0
-0.0194166 -0.000862322 0
-0.0181336 -0.00108772 0
-0.0165696 -0.00129641 0
-0.014778 -0.00145435 0
-0.0128126 -0.0015275 0
-0.0107938 -0.00154786 0
-0.00884233 -0.00154743 0
-0.00695318 -0.00150064 0
-0.00512123 -0.00138191 0
-0.00342722 -0.00124076 0
-0.00195189 -0.00112669 0
-0.000780929 -0.000794754 0
0 0 0
0 0 0
-0.00101001 0.00201791 0
-0.00333929 0.00314552 0
-0.00637218 0.00367827 0
-0.009493 0.00391162 0
-0.0126823 0.00399407 0
-0.0159206 0.00407414 0
-0.0191505 0.00407263 0
-0.0223148 0.00391038 0
-0.0252766 0.00358838 0
-0.0278987 0.00310763 0
-0.0301087 0.00251903 0
-0.0318339 0.00187345 0
-0.0330358 0.00118856 0
-0.0336758 0.000481996 0
-0.0337516 -0.000233732 0
-0.0332611 -0.000946135 0
-0.0322135 -0.00164046 0
-0.0306178 -0.00230196 0
-0.0285243 -0.00290712 0
-0.0259832 -0.00343242 0
-0.0230946 -0.00382551 0
-0.0199585 -0.00403404 0
-0.0167321 -0.00405781 0
-0.0135723 -0.00389658 0
-0.0105709 -0.00365658 0
-0.00781946 -0.00344401 0
-0.00524642 -0.00314794 0
-0.00278007 -0.0026574 0
-0.000878548 -0.00169916 0
0 0 0
0 0 0
-0.00103541 0.00382449 0
-0.00386445 0.0059898 0
-0.00760506 0.00701679 0
-0.0113752 0.00742631 0
-0.015228 0.00754953 0
-0.0192168 0.00771759 0
-0.0232116 0.00773598 0
-0.0270827 0.00741015 0
-0.0306918 0.00677821 0
-0.0339009 0.00587826 0
-0.0366146 0.00478097 0
-0.0387375 0.00355703 0
-0.0402167 0.002249 0
-0.0409991 0.000899456 0
-0.0410811 -0.000467144 0
-0.0404591 -0.00182634 0
-0.0391457 -0.00315185 0
-0.0371533 -0.00441739 0
-0.0345477 -0.00556549 0
-0.0313947 -0.0065387 0
-0.0278311 -0.00726436 0
-0.0239933 -0.00766981 0
-0.020041 -0.00771821 0
-0.0161338 -0.00737272 0
-0.01245 -0.00687215 0
-0.00916767 -0.00645532 0
-0.00612391 -0.00590003 0
-0.00315567 -0.00498406 0
-0.000901508 -0.0031899 0
0 0 0
0 0 0
-0.00196612 0.00699631 0
-0.00490679 0.0104975 0
-0.00855647 0.0119018 0
-0.0126496 0.0126079 0
-0.017076 0.0128902 0
-0.0217252 0.0130235 0
-0.026401 0.0128356 0
-0.030907 0.0121541 0
-0.0350974 0.011033 0
-0.0388267 0.00952602 0
-0.0419737 0.00772136 0
-0.0444172 0.00570724 0
-0.0461136 0.00355991 0
-0.0470192 0.00135562 0
-0.0471172 -0.000871864 0
-0.0463908 -0.00308879 0
-0.044867 -0.00524918 0
-0.0425727 -0.00730707 0
-0.0395793 -0.0091701 0
-0.0359582 -0.0107459 0
-0.0318692 -0.0119218 0
-0.0274724 -0.012585 0
-0.0229466 -0.0127174 0
-0.0184708 -0.0123011 0
-0.0141874 -0.0115517 0
-0.0102388 -0.0106849 0
-0.00672602 -0.00967554 0
-0.00374984 -0.00849864 0
-0.00145846 -0.00574364 0
0 0 0
0 0 0
-0.00256019 0.0098331 0
-0.00590644 0.0147132 0
-0.0100297 0.0166898 0
-0.0149208 0.0178123 0
-0.020253 0.0183178 0
-0.0256995 0.018443 0
-0.0310768 0.0180602 0
-0.0362019 0.0170415 0
-0.0409237 0.0154433 0
-0.0450914 0.0133216 0
-0.0485878 0.0107939 0
-0.0512953 0.0079778 0
-0.0531732 0.00497383 0
-0.0541808 0.00188273 0
-0.0542903 -0.00124581 0
-0.0534742 -0.00436208 0
-0.051768 -0.00739495 0
-0.0492075 -0.0102733 0
-0.0458674 -0.0128749 0
-0.0418222 -0.0150775 0
-0.0372331 -0.0167205 0
-0.032261 -0.0176432 0
-0.0271071 -0.0178615 0
-0.0219725 -0.0173913 0
-0.0169482 -0.0164126 0
-0.0121253 -0.0151057 0
-0.00784201 -0.0135478 0
-0.00443666 -0.0118162 0
-0.0018443 -0.00795297 0
0 0 0
0 0 0
-0.00157567 0.0106346 0
-0.00630352 0.0166818 0
-0.0128279 0.019737 0
-0.0197932 0.0213957 0
-0.026786 0.0221338 0
-0.0333931 0.022427 0
-0.0395974 0.0220986 0
-0.0453816 0.0209716 0
-0.0506008 0.0190995 0
-0.0551102 0.0165357 0
-0.0588584 0.0134525 0
-0.061794 0.0100224 0
-0.0638422 0.00634331 0
-0.0649284 0.00251301 0
-0.0650306 -0.0013869 0
-0.0641271 -0.00527481 0
-0.0622394 -0.00905167 0
-0.0593891 -0.0126184 0
-0.0556599 -0.0158339 0
-0.0511357 -0.0185569 0
-0.0459471 -0.020583 0
-0.0402245 -0.0217081 0
-0.0341806 -0.0219565 0
-0.0280281 -0.0213528 0
-0.0218975 -0.0201724 0
-0.0159194 -0.0186908 0
-0.0102612 -0.01659 0
-0.00509018 -0.0135518 0
-0.00135396 -0.00841043 0
0 0 0
0 0 0
-0.00082521 0.0142412 0
-0.00690059 0.0227832 0
-0.0157149 0.0272544 0
-0.0247569 0.0292838 0
-0.0336027 0.02981 0
-0.0418283 0.029772 0
-0.0494007 0.0289757 0
-0.0562868 0.0272268 0
-0.0623852 0.0246141 0
-0.0675943 0.0212263 0
-0.0719045 0.0172457 0
-0.075306 0.0128546 0
-0.0777034 0.00815142 0
-0.0790013 0.00323494 0
-0.0791822 -0.00178276 0
-0.0782285 -0.00678957 0
-0.0761448 -0.0116608 0
-0.0729356 -0.0162719 0
-0.0686808 -0.0204544 0
-0.0634598 -0.0240399 0
-0.0573807 -0.026794 0
-0.0505514 -0.0284822 0
-0.0431767 -0.0290809 0
-0.0354613 -0.0285665 0
-0.0277099 -0.0273095 0
-0.0202275 -0.0256802 0
-0.0129671 -0.0230456 0
-0.00588184 -0.0187724 0
-0.000912543 -0.0115331 0
0 0 0
0 0 0
-0.00212145 0.0254933 0
-0.00850022 0.0393973 0
-0.0174544 0.0454531 0
-0.0273023 0.0474023 0
-0.0376308 0.0468182 0
-0.048027 0.0452744 0
-0.0579248 0.0427164 0
-0.0667583 0.0390897 0
-0.074533 0.0345997 0
-0.0812548 0.0294518 0
-0.0868447 0.0237223 0
-0.0912239 0.0174876 0
-0.0943396 0.0108812 0
-0.0961389 0.00403701 0
-0.0965889 -0.00292104 0
-0.0956569 -0.00986893 0
-0.0933474 -0.0166639 0
-0.0896655 -0.0231632 0
-0.0846539 -0.0291438 0
-0.0783556 -0.0343826 0
-0.0709034 -0.0386381 0
-0.0624304 -0.0416683 0
-0.053105 -0.0433135 0
-0.0430956 -0.0434136 0
-0.03306 -0.0423024 0
-0.0236558 -0.0403137 0
-0.0149434 -0.0371578 0
-0.00698307 -0.0325448 0
-0.00144517 -0.0217379 0
0 0 0
0 0 0
-0.00324344 0.0349634 0
-0.00928176 0.0536452 0
-0.017638 0.061505 0
-0.027835 0.0640019 0
-0.0392519 0.0630111 0
-0.0512675 0.0604077 0
-0.062964 0.056385 0
-0.0734237 0.0511365 0
-0.0826824 0.0449605 0
-0.090776 0.0381557 0
-0.0975495 0.0307239 0
-0.102848 0.022667 0
-0.106657 0.0141635 0
-0.108962 0.00539184 0
-0.109719 -0.00351625 0
-0.108879 -0.012429 0
-0.106446 -0.0211835 0
-0.102423 -0.0296171 0
-0.0968205 -0.0374548 0
-0.0896492 -0.044422 0
-0.0810634 -0.0502595 0
-0.0712173 -0.0547082 0
-0.0602812 -0.0574618 0
-0.0484254 -0.0582141 0
-0.0365444 -0.0571333 0
-0.0255328 -0.0543873 0
-0.0157847 -0.0502219 0
-0.00769434 -0.0448827 0
-0.00214 -0.0306989 0
0 0 0
0 0 0
-0.00197019 0.0332238 0
-0.00742457 0.0526483 0
-0.0158569 0.0625819 0
-0.0267608 0.0673332 0
-0.0388475 0.0682413 0
-0.050828 0.0666452 0
-0.0623124 0.0630456 0
-0.0729107 0.0579433 0
-0.0824712 0.0516011 0
-0.0908424 0.0442818 0
-0.0978892 0.0360921 0
-0.103477 0.0271385 0
-0.10756 0.0176291 0
-0.110093 0.00777203 0
-0.111039 -0.00228292 0
-0.110362 -0.0123858 0
-0.10804 -0.0223424 0
-0.104053 -0.0319583 0
-0.0984219 -0.0409403 0
-0.091167 -0.0489952 0
-0.0824089 -0.0558029 0
-0.0722682 -0.0610436 0
-0.0610214 -0.0643334 0
-0.048945 -0.0652885 0
-0.03676 -0.0637845 0
-0.0251869 -0.0596972 0
-0.0150857 -0.0535333 0
-0.00731612 -0.0457996 0
-0.00218518 -0.0300903 0
0 0 0
0 0 0
-0.00093423 0.0273548 0
-0.00610765 0.0460161 0
-0.0147067 0.0580593 0
-0.0259177 0.0655601 0
-0.0380352 0.0691207 0
-0.0493533 0.0693433 0
-0.0600395 0.0669415 0
-0.0702611 0.062629 0
-0.0796632 0.0566467 0
-0.0878911 0.0492359 0
-0.094853 0.0406629 0
-0.100457 0.0311939 0
-0.104619 0.02106 0
-0.107252 0.0104919 0
-0.108335 -0.000342101 0
-0.107842 -0.0112741 0
-0.105732 -0.0220852 0
-0.101964 -0.0325564 0
-0.0965741 -0.0423884 0
-0.0895965 -0.0512821 0
-0.0811115 -0.0588433 0
-0.071199 -0.0646777 0
-0.0602308 -0.0683382 0
-0.0485786 -0.0693781 0
-0.0367015 -0.0673867 0
-0.0250581 -0.0619538 0
-0.0148464 -0.0535522 0
-0.00726415 -0.0426552 0
-0.00231433 -0.025919 0
0 0 0
0 0 0
-0.00276809 0.0244365 0
-0.00850999 0.0433584 0
-0.0167829 0.0573127 0
-0.0271438 0.0668463 0
-0.0384324 0.072261 0
-0.0494881 0.0738583 0
-0.0602149 0.0723162 0
-0.0705166 0.0683124 0
-0.0800219 0.0622229 0
-0.0883594 0.0544237 0
-0.0954297 0.045272 0
-0.101134 0.035125 0
-0.105401 0.0242378 0
-0.108162 0.0128659 0
-0.10939 0.00118512 0
-0.109056 -0.0106288 0
-0.107127 -0.022357 0
-0.103566 -0.0337808 0
-0.0983931 -0.0445872 0
-0.0916253 -0.0544631 0
-0.0833428 -0.062956 0
-0.0736258 -0.0696134 0
-0.0628147 -0.0738859 0
-0.0512503 -0.0752243 0
-0.0393637 -0.0730708 0
-0.0275863 -0.0668676 0
-0.0170668 -0.0567391 0
-0.00895419 -0.0428094 0
-0.00326107 -0.0241919 0
0 0 0
0 0 0
-0.00499059 0.0251831 0
-0.0117112 0.0459187 0
-0.0200655 0.0619766 0
-0.0299569 0.0731265 0
-0.0408892 0.0796911 0
-0.0523659 0.0819929 0
-0.0638117 0.0806618 0
-0.0746509 0.0763271 0
-0.0845698 0.0695481 0
-0.0932545 0.0608841 0
-0.100601 0.0507497 0
-0.106506 0.0395596 0
-0.110935 0.0275848 0
-0.113858 0.0150964 0
-0.115243 0.00226978 0
-0.115061 -0.0107196 0
-0.113282 -0.0236655 0
-0.109875 -0.0363615 0
-0.104822 -0.0484803 0
-0.0981054 -0.0596947 0
-0.0897945 -0.069488 0
-0.0799595 -0.0773436 0
-0.068873 -0.0825873 0
-0.056808 -0.084545 0
-0.044278 -0.0825311 0
-0.0317968 -0.0758601 0
-0.0203962 -0.0642506 0
-0.0111079 -0.0474211 0
-0.00421484 -0.025846 0
0 0 0
0 0 0
-0.00512056 0.0303091 0
-0.012791 0.0549406 0
-0.0225347 0.0736856 0
-0.0338747 0.0863351 0
-0.0462552 0.0934397 0
-0.0591201 0.0955499 0
-0.071803 0.0934705 0
-0.0836376 0.0880068 0
-0.0943294 0.0798412 0
-0.103584 0.0696561 0
-0.111349 0.0579261 0
-0.117573 0.0451257 0
-0.12225 0.0315228 0
-0.125375 0.0173857 0
-0.126934 0.00288294 0
-0.126912 -0.0118168 0
-0.125255 -0.0265189 0
-0.121906 -0.0410286 0
-0.116805 -0.0550116 0
-0.109889 -0.0681335 0
-0.101158 -0.0797861 0
-0.0906111 -0.089361 0
-0.0785056 -0.0960532 0
-0.0650996 -0.0990578 0
-0.0509755 -0.0974619 0
-0.0367152 -0.0903526 0
-0.023484 -0.0772437 0
-0.0124469 -0.0576491 0
-0.0043651 -0.0318181 0
0 0 0
0 0 0
-0.00461024 0.0371544 0
-0.0132873 0.0666031 0
-0.024934 0.0883741 0
-0.0384531 0.102495 0
-0.0529412 0.109866 0
-0.0674951 0.111385 0
-0.0815044 0.10812 0
-0.0943588 0.101139 0
-0.105799 0.0912482 0
-0.115566 0.0792575 0
-0.123675 0.0656935 0
-0.130143 0.0510836 0
-0.135003 0.035687 0
-0.138286 0.0197631 0
-0.139998 0.00345814 0
-0.140147 -0.0130814 0
-0.138646 -0.0296853 0
-0.135409 -0.0461833 0
-0.130317 -0.0622388 0
-0.123251 -0.0775151 0
-0.114119 -0.0913174 0
-0.102829 -0.102951 0
-0.0896046 -0.11144 0
-0.0746722 -0.115806 0
-0.058682 -0.114858 0
-0.0422845 -0.107403 0
-0.0268716 -0.0927418 0
-0.013835 -0.0701754 0
-0.00445206 -0.0393721 0
0 0 0
0 0 0
-0.00491187 0.0430589 0
-0.014738 0.0770855 0
-0.028007 0.101977 0
-0.0432475 0.117629 0
-0.0593576 0.125327 0
-0.0752353 0.126354 0
-0.0902314 0.121988 0
-0.103696 0.113509 0
-0.115477 0.101916 0
-0.125418 0.088206 0
-0.133581 0.0729441 0
-0.140026 0.0566938 0
-0.144852 0.0397126 0
-0.14816 0.0222578 0
-0.149971 0.0044289 0
-0.150304 -0.0136745 0
-0.149058 -0.031933 0
-0.146134 -0.050227 0
-0.141335 -0.0682198 0
-0.134466 -0.0855748 0
-0.125362 -0.101549 0
-0.11386 -0.1154 0
-0.100062 -0.125903 0
-0.0840725 -0.131834 0
-0.0666232 -0.131716 0
-0.0484474 -0.12407 0
-0.0311001 -0.107768 0
-0.0161361 -0.0816817 0
-0.00521593 -0.0457717 0
0 0 0
0 0 0
-0.00563044 0.0494583 0
-0.0167523 0.0882568 0
-0.0315937 0.116272 0
-0.0483826 0.133381 0
-0.0658286 0.141245 0
-0.0826411 0.141527 0
-0.0981743 0.135798 0
-0.111783 0.125629 0
-0.123434 0.112206 0
-0.133093 0.0967141 0
-0.140895 0.0797621 0
-0.146971 0.0619584 0
-0.151497 0.0435399 0
-0.154648 0.0247437 0
-0.156464 0.00560341 0
-0.156981 -0.0138474 0
-0.156094 -0.0335615 0
-0.153692 -0.0534917 0
-0.149505 -0.073332 0
-0.143259 -0.0927764 0
-0.134691 -0.11104 0
-0.123538 -0.127339 0
-0.109747 -0.140203 0
-0.0932669 -0.148163 0
-0.0748194 -0.149336 0
-0.0551262 -0.14184 0
-0.0359276 -0.124026 0
-0.0189637 -0.0942454 0
-0.00629948 -0.0528024 0
0 0 0
0 0 0
-0.00637089 0.0577883 0
-0.0189394 0.101986 0
-0.0355339 0.133039 0
-0.0539828 0.151393 0
-0.0726783 0.15904 0
-0.0900126 0.157974 0
-0.105524 0.150271 0
-0.11875 0.138007 0
-0.12974 0.122481 0
-0.138542 0.104994 0
-0.145444 0.0862317 0
-0.150732 0.0668792 0
-0.154639 0.0471095 0
-0.157398 0.0270949 0
-0.159086 0.00678985 0
-0.159781 -0.0138513 0
-0.159358 -0.0348705 0
-0.157694 -0.0563097 0
-0.154468 -0.0779528 0
-0.149354 -0.0995837 0
-0.141911 -0.12035 0
-0.131695 -0.139399 0
-0.118526 -0.155098 0
-0.102222 -0.165812 0
-0.0832908 -0.16902 0
-0.0622429 -0.162198 0
-0.0411117 -0.143216 0
-0.021931 -0.109944 0
-0.00734548 -0.0622495 0
0 0 0
0 0 0
-0.00716345 0.0675405 0
-0.0213765 0.117694 0
-0.0397854 0.151689 0
-0.0595365 0.170758 0
-0.0788714 0.177488 0
-0.0960316 0.174466 0
-0.110749 0.164287 0
-0.122755 0.149543 0
-0.132261 0.131679 0
-0.139479 0.112139 0
-0.144859 0.0916428 0
-0.148851 0.0709076 0
-0.151745 0.0500228 0
-0.153835 0.0290773 0
-0.155237 0.00792842 0
-0.156069 -0.0135665 0
-0.156202 -0.0355594 0
-0.155508 -0.058202 0
-0.153625 -0.0813999 0
-0.15019 -0.105058 0
-0.144584 -0.128322 0
-0.136189 -0.150337 0
-0.124595 -0.169289 0
-0.109391 -0.183366 0
-0.0908289 -0.189373 0
-0.0691583 -0.184119 0
-0.0465335 -0.164683 0
-0.0251083 -0.128148 0
-0.00841861 -0.0735685 0
0 0 0
0 0 0
-0.00803832 0.0782063 0
-0.0241407 0.134798 0
-0.0443059 0.171633 0
-0.0645324 0.190569 0
-0.0833728 0.195363 0
-0.0993798 0.189774 0
-0.112318 0.176725 0
-0.121953 0.159138 0
-0.128861 0.138736 0
-0.133618 0.117242 0
-0.136772 0.0952856 0
-0.13887 0.0734948 0
-0.140284 0.0518814 0
-0.141384 0.030457 0
-0.142313 0.00895937 0
-0.143214 -0.0128734 0
-0.14398 -0.0353277 0
-0.144501 -0.0586899 0
-0.144377 -0.0829909 0
-0.143205 -0.108261 0
-0.140276 -0.133801 0
-0.134876 -0.158908 0
-0.126147 -0.181478 0
-0.11323 -0.199405 0
-0.0962253 -0.209001 0
-0.0752334 -0.206577 0
-0.0520737 -0.187773 0
-0.0285659 -0.148229 0
-0.00958351 -0.0862147 0
0 0 0
0 0 0
-0.00922045 0.0903673 0
-0.0267929 0.153291 0
-0.0478632 0.192026 0
-0.067577 0.209827 0
-0.0847077 0.211702 0
-0.0980284 0.202657 0
-0.107595 0.186116 0
-0.113464 0.1655 0
-0.11659 0.142674 0
-0.117926 0.119506 0
-0.118095 0.0964898 0
-0.117716 0.0741228 0
-0.117215 0.0523141 0
-0.117018 0.0309731 0
-0.117281 0.00971562 0
-0.118161 -0.0118425 0
-0.119586 -0.0341258 0
-0.121485 -0.0575588 0
-0.123455 -0.0823242 0
-0.125091 -0.108605 0
-0.125647 -0.135922 0
-0.124374 -0.163798 0
-0.119975 -0.190028 0
-0.111151 -0.21241 0
-0.0975351 -0.226597 0
-0.0787608 -0.228244 0
-0.0563416 -0.211372 0
-0.0317908 -0.169999 0
-0.0110348 -0.100688 0
0 0 0
0 0 0
-0.0109348 0.104605 0
-0.0288937 0.173162 0
-0.049225 0.212022 0
-0.0672772 0.227535 0
-0.0814015 0.22554 0
-0.0899489 0.211876 0
-0.0939426 0.190992 0
-0.0944061 0.167338 0
-0.0924973 0.142516 0
-0.0893745 0.118132 0
-0.0857441 0.0945852 0
-0.0823122 0.0722735 0
-0.079495 0.0509494 0
-0.0777085 0.0303649 0
-0.0771092 0.0100301 0
-0.0778538 -0.0105446 0
-0.0799174 -0.0319044 0
-0.083275 -0.0545943 0
-0.0875932 -0.0789983 0
-0.0925387 -0.105501 0
-0.0973596 -0.133824 0
-0.101304 -0.163692 0
-0.102873 -0.193304 0
-0.100568 -0.220858 0
-0.0928136 -0.240854 0
-0.0780335 -0.247793 0
-0.057946 -0.234367 0
-0.0342698 -0.193272 0
-0.012967 -0.117488 0
0 0 0
0 0 0
-0.0119615 0.119408 0
-0.0298936 0.192678 0
-0.0483676 0.229845 0
-0.0619553 0.240941 0
-0.0697086 0.233351 0
-0.0706792 0.214455 0
-0.0668736 0.189367 0
-0.0602981 0.163201 0
-0.0522015 0.137136 0
-0.0438322 0.112356 0
-0.035896 0.0891125 0
-0.0290983 0.0676613 0
-0.0237758 0.0475923 0
-0.0202651 0.0284959 0
-0.0187011 0.00980354 0
-0.0192183 -0.00905333 0
-0.0218431 -0.0287059 0
-0.0266017 -0.0497855 0
-0.0332964 -0.0728684 0
-0.0417299 -0.0985311 0
-0.0512534 -0.126733 0
-0.0612184 -0.157435 0
-0.0701314 -0.189459 0
-0.0764988 -0.221629 0
-0.0775888 -0.247813 0
-0.0706698 -0.26188 0
-0.0563384 -0.254408 0
-0.0351913 -0.215974 0
-0.0141159 -0.135023 0
0 0 0
0 0 0
-0.0110808 0.133266 0
-0.0292431 0.210106 0
-0.0452673 0.243718 0
-0.0499337 0.247298 0
-0.0458833 0.23161 0
-0.0357574 0.20742 0
-0.0219009 0.179254 0
-0.00665891 0.151637 0
0.00868074 0.125409 0
0.0228301 0.101408 0
0.0352715 0.0796128 0
0.0454876 0.0600007 0
0.0532934 0.0420478 0
0.0585038 0.0252299 0
0.0610391 0.00893669 0
0.0608194 -0.00744213 0
0.0577666 -0.0245728 0
0.0518024 -0.0431216 0
0.0429301 -0.0637896 0
0.0311528 -0.0872782 0
0.0168314 -0.113875 0
0.000327027 -0.143869 0
-0.0170429 -0.176648 0
-0.0339608 -0.211601 0
-0.0473887 -0.243511 0
-0.0542885 -0.267165 0
-0.0509701 -0.269145 0
-0.0337436 -0.236035 0
-0.0132174 -0.151698 0
0 0 0
0 0 0
-0.0101166 0.148578 0
-0.0234117 0.223739 0
-0.0300297 0.247215 0
-0.0201147 0.240739 0
-0.000160517 0.217065 0
0.0233391 0.188947 0
0.048249 0.159621 0
0.0724344 0.132324 0
0.0948011 0.107532 0
0.114255 0.0857223 0
0.130613 0.0665693 0
0.143692 0.0497483 0
0.153509 0.0346844 0
0.160082 0.0208028 0
0.163407 0.00750357 0
0.163482 -0.00581294 0
0.160182 -0.019789 0
0.153387 -0.035067 0
0.142889 -0.0523794 0
0.12848 -0.072459 0
0.110114 -0.0959113 0
0.0877399 -0.123342 0
0.0622508 -0.154648 0
0.0345378 -0.189727 0
0.00713882 -0.225159 0
-0.017408 -0.25752 0
-0.0310063 -0.271183 0
-0.0255598 -0.250518 0
-0.0116854 -0.168974 0
0 0 0
0 0 0
-0.0108929 0.167748 0
-0.00886865 0.231871 0
0.00723968 0.233909 0
0.0385992 0.215403 0
0.0772252 0.186466 0
0.115133 0.157211 0
0.15085 0.129436 0
0.182905 0.104936 0
0.210812 0.0837041 0
0.234086 0.0657301 0
0.252983 0.0504653 0
0.267761 0.0373606 0
0.278669 0.0258707 0
0.285954 0.0154505 0
0.2897 0.00557821 0
0.289991 -0.00426766 0
0.286675 -0.0146386 0
0.279602 -0.0260863 0
0.268381 -0.0392553 0
0.252624 -0.0547906 0
0.231812 -0.0735018 0
0.205428 -0.0961989 0
0.173608 -0.123235 0
0.136489 -0.154963 0
0.0953457 -0.189965 0
0.0514532 -0.226821 0
0.0143881 -0.253129 0
-0.00627299 -0.256487 0
-0.0109342 -0.188307 0
0 0 0
0 0 0
0.0116126 0.164902 0
0.0453312 0.212116 0
0.0932558 0.195849 0
0.147486 0.170311 0
0.201976 0.141479 0
0.250679 0.115333 0
0.293249 0.0923663 0
0.329339 0.0730739 0
0.359305 0.0571039 0
0.383503 0.0441048 0
0.402596 0.0334444 0
0.417247 0.0244902 0
0.427888 0.016805 0
0.434951 0.00995133 0
0.43859 0.00353532 0
0.438957 -0.00283681 0
0.435891 -0.0095776 0
0.429232 -0.0170996 0
0.41848 -0.0258769 0
0.403137 -0.0363835 0
0.382315 -0.0494561 0
0.355125 -0.0659312 0
0.320823 -0.0863939 0
0.278665 -0.111429 0
0.228301 -0.141245 0
0.16938 -0.176052 0
0.10883 -0.208598 0
0.0535774 -0.231633 0
0.0138812 -0.182864 0
0 0 0
2.77334e-30 0 0
0.0824218 0.11417 0
0.170133 0.14209 0
0.254734 0.125086 0
0.327824 0.104484 0
0.389794 0.0837702 0
0.441033 0.0664307 0
0.482792 0.0520808 0
0.516323 0.040336 0
0.542873 0.0309108 0
0.563688 0.0235196 0
0.579665 0.0176501 0
0.591699 0.0127899 0
0.600282 0.00868566 0
0.605908 0.00508367 0
0.608753 0.00174961 0
0.608992 -0.00155089 0
0.606478 -0.00506186 0
0.601064 -0.00902734 0
0.59226 -0.013704 0
0.579577 -0.0193484 0
0.562013 -0.026583 0
0.538568 -0.0360302 0
0.507693 -0.048111 0
0.467841 -0.0632464 0
0.417075 -0.0823161 0
0.353459 -0.1062 0
0.275936 -0.131206 0
0.183452 -0.153643 0
0.0876061 -0.125809 0
2.77334e-30 0 0
0.25 0 0
0.359297 0.0482895 0
0.457651 0.0589864 0
0.540655 0.0502567 0
0.6039 0.040266 0
0.652022 0.0307929 0
0.689653 0.0236161 0
0.718651 0.0181138 0
0.740872 0.0136642 0
0.757707 0.0101883 0
0.770551 0.00760706 0
0.780148 0.00564707 0
0.787242 0.00403482 0
0.792202 0.00269113 0
0.795399 0.00153678 0
0.796964 0.000483644 0
0.797028 -0.000556448 0
0.795494 -0.00167486 0
0.792264 -0.00296296 0
0.787005 -0.00449289 0
0.779383 -0.00633677 0
0.768657 -0.00879395 0
0.754083 -0.0121638 0
0.734118 -0.0165812 0
0.707218 -0.0221814 0
0.671147 -0.02972 0
0.623671 -0.0399527 0
0.558672 -0.051493 0
0.470032 -0.062954 0
0.364794 -0.0529262 0
0.25 0 0
1 0 0
1 0 0
1 0 0
1 0 0
1 0 0
1 0 0
1 0 0
1 0 0
1 0 0
1 0 0
1 0 0
1 0 0
1 0 0
1 0 0
1 0 0
1 0 0
1 0 0
1 0 0