<?xml version="1.0"?>
<VTKFile type="UnstructuredGrid">
  <UnstructuredGrid>
  <Piece NumberOfPoints="961"  NumberOfCells="225">
    <Points>
      <DataArray type="Float64" NumberOfComponents="3" format="ascii">
0 0 0
0.0333333 0 0
0.0666667 0 0
0.1 0 0
0.133333 0 0
0.166667 0 0
0.2 0 0
0.233333 0 0
0.266667 0 0
0.3 0 0
0.333333 0 0
0.366667 0 0
0.4 0 0
0.433333 0 0
0.466667 0 0
0.5 0 0
0.533333 0 0
0.566667 0 0
0.6 0 0
0.633333 0 0
0.666667 0 0
0.7 0 0
0.733333 0 0
0.766667 0 0
0.8 0 0
0.833333 0 0
0.866667 0 0
0.9 0 0
0.933333 0 0
0.966667 0 0
1 0 0
0 0.0333333 0
0.0333333 0.0333333 0
0.0666667 0.0333333 0
0.1 0.0333333 0
0.133333 0.0333333 0
0.166667 0.0333333 0
0.2 0.0333333 0
0.233333 0.0333333 0
0.266667 0.0333333 0
0.3 0.0333333 0
0.333333 0.0333333 0
0.366667 0.0333333 0
0.4 0.0333333 0
0.433333 0.0333333 0
0.466667 0.0333333 0
0.5 0.0333333 0
0.533333 0.0333333 0
0.566667 0.0333333 0
0.6 0.0333333 0
0.633333 0.0333333 0
0.666667 0.0333333 0
0.7 0.0333333 0
0.733333 0.0333333 0
0.766667 0.0333333 0
0.8 0.0333333 0
0.833333 0.0333333 0
0.866667 0.0333333 0
0.9 0.0333333 0
0.933333 0.0333333 0
0.966667 0.0333333 0
1 0.0333333 0
0 0.0666667 0
0.0333333 0.0666667 0
0.0666667 0.0666667 0
0.1 0.0666667 0
0.133333 0.0666667 0
0.166667 0.0666667 0
0.2 0.0666667 0
0.233333 0.0666667 0
0.266667 0.0666667 0
0.3 0.0666667 0
0.333333 0.0666667 0
0.366667 0.0666667 0
0.4 0.0666667 0
0.433333 0.0666667 0
0.466667 0.0666667 0
0.5 0.0666667 0
0.533333 0.0666667 0
0.566667 0.0666667 0
0.6 0.0666667 0
0.633333 0.0666667 0
0.666667 0.0666667 0
0.7 0.0666667 0
0.733333 0.0666667 0
0.766667 0.0666667 0
0.8 0.0666667 0
0.833333 0.0666667 0
0.866667 0.0666667 0
0.9 0.0666667 0
0.933333 0.0666667 0
0.966667 0.0666667 0
1 0.0666667 0
0 0.1 0
0.0333333 0.1 0
0.0666667 0.1 0
0.1 0.1 0
0.133333 0.1 0
0.166667 0.1 0
0.2 0.1 0
0.233333 0.1 0
0.266667 0.1 0
0.3 0.1 0
0.333333 0.1 0
0.366667 0.1 0
0.4 0.1 0
0.433333 0.1 0
0.466667 0.1 0
0.5 0.1 0
0.533333 0.1 0
0.566667 0.1 0
0.6 0.1 0
0.633333 0.1 0
0.666667 0.1 0
0.7 0.1 0
0.733333 0.1 0
0.766667 0.1 0
0.8 0.1 0
0.833333 0.1 0
0.866667 0.1 0
0.9 0.1 0
0.933333 0.1 0
0.966667 0.1 0
1 0.1 0
0 0.133333 0
0.0333333 0.133333 0
0.0666667 0.133333 0
0.1 0.133333 0
0.133333 0.133333 0
0.166667 0.133333 0
0.2 0.133333 0
0.233333 0.133333 0
0.266667 0.133333 0
0.3 0.133333 0
0.333333 0.133333 0
0.366667 0.133333 0
0.4 0.133333 0
0.433333 0.133333 0
0.466667 0.133333 0
0.5 0.133333 0
0.533333 0.133333 0
0.566667 0.133333 0
0.6 0.133333 0
0.633333 0.133333 0
0.666667 0.133333 0
0.7 0.133333 0
0.733333 0.133333 0
0.766667 0.133333 0
0.8 0.133333 0
0.833333 0.133333 0
0.866667 0.133333 0
0.9 0.133333 0
0.933333 0.133333 0
0.966667 0.133333 0
1 0.133333 0
0 0.166667 0
0.0333333 0.166667 0
0.0666667 0.166667 0
0.1 0.166667 0
0.133333 0.166667 0
0.166667 0.166667 0
0.2 0.166667 0
0.233333 0.166667 0
0.266667 0.166667 0
0.3 0.166667 0
0.333333 0.166667 0
0.366667 0.166667 0
0.4 0.166667 0
0.433333 0.166667 0
0.466667 0.166667 0
0.5 0.166667 0
0.533333 0.166667 0
0.566667 0.166667 0
0.6 0.166667 0
0.633333 0.166667 0
0.666667 0.166667 0
0.7 0.166667 0
0.733333 0.166667 0
0.766667 0.166667 0
0.8 0.166667 0
0.833333 0.166667 0
0.866667 0.166667 0
0.9 0.166667 0
0.933333 0.166667 0
0.966667 0.166667 0
1 0.166667 0
0 0.2 0
0.0333333 0.2 0
0.0666667 0.2 0
0.1 0.2 0
0.133333 0.2 0
0.166667 0.2 0
0.2 0.2 0
0.233333 0.2 0
0.266667 0.2 0
0.3 0.2 0
0.333333 0.2 0
0.366667 0.2 0
0.4 0.2 0
0.433333 0.2 0
0.466667 0.2 0
0.5 0.2 0
0.533333 0.2 0
0.566667 0.2 0
0.6 0.2 0
0.633333 0.2 0
0.666667 0.2 0
0.7 0.2 0
0.733333 0.2 0
0.766667 0.2 0
0.8 0.2 0
0.833333 0.2 0
0.866667 0.2 0
0.9 0.2 0
0.933333 0.2 0
0.966667 0.2 0
1 0.2 0
0 0.233333 0
0.0333333 0.233333 0
0.0666667 0.233333 0
0.1 0.233333 0
0.133333 0.233333 0
0.166667 0.233333 0
0.2 0.233333 0
0.233333 0.233333 0
0.266667 0.233333 0
0.3 0.233333 0
0.333333 0.233333 0
0.366667 0.233333 0
0.4 0.233333 0
0.433333 0.233333 0
0.466667 0.233333 0
0.5 0.233333 0
0.533333 0.233333 0
0.566667 0.233333 0
0.6 0.233333 0
0.633333 0.233333 0
0.666667 0.233333 0
0.7 0.233333 0
0.733333 0.233333 0
0.766667 0.233333 0
0.8 0.233333 0
0.833333 0.233333 0
0.866667 0.233333 0
0.9 0.233333 0
0.933333 0.233333 0
0.966667 0.233333 0
1 0.233333 0
0 0.266667 0
0.0333333 0.266667 0
0.0666667 0.266667 0
0.1 0.266667 0
0.133333 0.266667 0
0.166667 0.266667 0
0.2 0.266667 0
0.233333 0.266667 0
0.266667 0.266667 0
0.3 0.266667 0
0.333333 0.266667 0
0.366667 0.266667 0
0.4 0.266667 0
0.433333 0.266667 0
0.466667 0.266667 0
0.5 0.266667 0
0.533333 0.266667 0
0.566667 0.266667 0
0.6 0.266667 0
0.633333 0.266667 0
0.666667 0.266667 0
0.7 0.266667 0
0.733333 0.266667 0
0.766667 0.266667 0
0.8 0.266667 0
0.833333 0.266667 0
0.866667 0.266667 0
0.9 0.266667 0
0.933333 0.266667 0
0.966667 0.266667 0
1 0.266667 0
0 0.3 0
0.0333333 0.3 0
0.0666667 0.3 0
0.1 0.3 0
0.133333 0.3 0
0.166667 0.3 0
0.2 0.3 0
0.233333 0.3 0
0.266667 0.3 0
0.3 0.3 0
0.333333 0.3 0
0.366667 0.3 0
0.4 0.3 0
0.433333 0.3 0
0.466667 0.3 0
0.5 0.3 0
0.533333 0.3 0
0.566667 0.3 0
0.6 0.3 0
0.633333 0.3 0
0.666667 0.3 0
0.7 0.3 0
0.733333 0.3 0
0.766667 0.3 0
0.8 0.3 0
0.833333 0.3 0
0.866667 0.3 0
0.9 0.3 0
0.933333 0.3 0
0.966667 0.3 0
1 0.3 0
0 0.333333 0
0.0333333 0.333333 0
0.0666667 0.333333 0
0.1 0.333333 0
0.133333 0.333333 0
0.166667 0.333333 0
0.2 0.333333 0
0.233333 0.333333 0
0.266667 0.333333 0
0.3 0.333333 0
0.333333 0.333333 0
0.366667 0.333333 0
0.4 0.333333 0
0.433333 0.333333 0
0.466667 0.333333 0
0.5 0.333333 0
0.533333 0.333333 0
0.566667 0.333333 0
0.6 0.333333 0
0.633333 0.333333 0
0.666667 0.333333 0
0.7 0.333333 0
0.733333 0.333333 0
0.766667 0.333333 0
0.8 0.333333 0
0.833333 0.333333 0
0.866667 0.333333 0
0.9 0.333333 0
0.933333 0.333333 0
0.966667 0.333333 0
1 0.333333 0
0 0.366667 0
0.0333333 0.366667 0
0.0666667 0.366667 0
0.1 0.366667 0
0.133333 0.366667 0
0.166667 0.366667 0
0.2 0.366667 0
0.233333 0.366667 0
0.266667 0.366667 0
0.3 0.366667 0
0.333333 0.366667 0
0.366667 0.366667 0
0.4 0.366667 0
0.433333 0.366667 0
0.466667 0.366667 0
0.5 0.366667 0
0.533333 0.366667 0
0.566667 0.366667 0
0.6 0.366667 0
0.633333 0.366667 0
0.666667 0.366667 0
0.7 0.366667 0
0.733333 0.366667 0
0.766667 0.366667 0
0.8 0.366667 0
0.833333 0.366667 0
0.866667 0.366667 0
0.9 0.366667 0
0.933333 0.366667 0
0.966667 0.366667 0
1 0.366667 0
0 0.4 0
0.0333333 0.4 0
0.0666667 0.4 0
0.1 0.4 0
0.133333 0.4 0
0.166667 0.4 0
0.2 0.4 0
0.233333 0.4 0
0.266667 0.4 0
0.3 0.4 0
0.333333 0.4 0
0.366667 0.4 0
0.4 0.4 0
0.433333 0.4 0
0.466667 0.4 0
0.5 0.4 0
0.533333 0.4 0
0.566667 0.4 0
0.6 0.4 0
0.633333 0.4 0
0.666667 0.4 0
0.7 0.4 0
0.733333 0.4 0
0.766667 0.4 0
0.8 0.4 0
0.833333 0.4 0
0.866667 0.4 0
0.9 0.4 0
0.933333 0.4 0
0.966667 0.4 0
1 0.4 0
0 0.433333 0
0.0333333 0.433333 0
0.0666667 0.433333 0
0.1 0.433333 0
0.133333 0.433333 0
0.166667 0.433333 0
0.2 0.433333 0
0.233333 0.433333 0
0.266667 0.433333 0
0.3 0.433333 0
0.333333 0.433333 0
0.366667 0.433333 0
0.4 0.433333 0
0.433333 0.433333 0
0.466667 0.433333 0
0.5 0.433333 0
0.533333 0.433333 0
0.566667 0.433333 0
0.6 0.433333 0
0.633333 0.433333 0
0.666667 0.433333 0
0.7 0.433333 0
0.733333 0.433333 0
0.766667 0.433333 0
0.8 0.433333 0
0.833333 0.433333 0
0.866667 0.433333 0
0.9 0.433333 0
0.933333 0.433333 0
0.966667 0.433333 0
1 0.433333 0
0 0.466667 0
0.0333333 0.466667 0
0.0666667 0.466667 0
0.1 0.466667 0
0.133333 0.466667 0
0.166667 0.466667 0
0.2 0.466667 0
0.233333 0.466667 0
0.266667 0.466667 0
0.3 0.466667 0
0.333333 0.466667 0
0.366667 0.466667 0
0.4 0.466667 0
0.433333 0.466667 0
0.466667 0.466667 0
0.5 0.466667 0
0.533333 0.466667 0
0.566667 0.466667 0
0.6 0.466667 0
0.633333 0.466667 0
0.666667 0.466667 0
0.7 0.466667 0
0.733333 0.466667 0
0.766667 0.466667 0
0.8 0.466667 0
0.833333 0.466667 0
0.866667 0.466667 0
0.9 0.466667 0
0.933333 0.466667 0
0.966667 0.466667 0
1 0.466667 0
0 0.5 0
0.0333333 0.5 0
0.0666667 0.5 0
0.1 0.5 0
0.133333 0.5 0
0.166667 0.5 0
0.2 0.5 0
0.233333 0.5 0
0.266667 0.5 0
0.3 0.5 0
0.333333 0.5 0
0.366667 0.5 0
0.4 0.5 0
0.433333 0.5 0
0.466667 0.5 0
0.5 0.5 0
0.533333 0.5 0
0.566667 0.5 0
0.6 0.5 0
0.633333 0.5 0
0.666667 0.5 0
0.7 0.5 0
0.733333 0.5 0
0.766667 0.5 0
0.8 0.5 0
0.833333 0.5 0
0.866667 0.5 0
0.9 0.5 0
0.933333 0.5 0
0.966667 0.5 0
1 0.5 0
0 0.533333 0
0.0333333 0.533333 0
0.0666667 0.533333 0
0.1 0.533333 0
0.133333 0.533333 0
0.166667 0.533333 0
0.2 0.533333 0
0.233333 0.533333 0
0.266667 0.533333 0
0.3 0.533333 0
0.333333 0.533333 0
0.366667 0.533333 0
0.4 0.533333 0
0.433333 0.533333 0
0.466667 0.533333 0
0.5 0.533333 0
0.533333 0.533333 0
0.566667 0.533333 0
0.6 0.533333 0
0.633333 0.533333 0
0.666667 0.533333 0
0.7 0.533333 0
0.733333 0.533333 0
0.766667 0.533333 0
0.8 0.533333 0
0.833333 0.533333 0
0.866667 0.533333 0
0.9 0.533333 0
0.933333 0.533333 0
0.966667 0.533333 0
1 0.533333 0
0 0.566667 0
0.0333333 0.566667 0
0.0666667 0.566667 0
0.1 0.566667 0
0.133333 0.566667 0
0.166667 0.566667 0
0.2 0.566667 0
0.233333 0.566667 0
0.266667 0.566667 0
0.3 0.566667 0
0.333333 0.566667 0
0.366667 0.566667 0
0.4 0.566667 0
0.433333 0.566667 0
0.466667 0.566667 0
0.5 0.566667 0
0.533333 0.566667 0
0.566667 0.566667 0
0.6 0.566667 0
0.633333 0.566667 0
0.666667 0.566667 0
0.7 0.566667 0
0.733333 0.566667 0
0.766667 0.566667 0
0.8 0.566667 0
0.833333 0.566667 0
0.866667 0.566667 0
0.9 0.566667 0
0.933333 0.566667 0
0.966667 0.566667 0
1 0.566667 0
0 0.6 0
0.0333333 0.6 0
0.0666667 0.6 0
0.1 0.6 0
0.133333 0.6 0
0.166667 0.6 0
0.2 0.6 0
0.233333 0.6 0
0.266667 0.6 0
0.3 0.6 0
0.333333 0.6 0
0.366667 0.6 0
0.4 0.6 0
0.433333 0.6 0
0.466667 0.6 0
0.5 0.6 0
0.533333 0.6 0
0.566667 0.6 0
0.6 0.6 0
0.633333 0.6 0
0.666667 0.6 0
0.7 0.6 0
0.733333 0.6 0
0.766667 0.6 0
0.8 0.6 0
0.833333 0.6 0
0.866667 0.6 0
0.9 0.6 0
0.933333 0.6 0
0.966667 0.6 0
1 0.6 0
0 0.633333 0
0.0333333 0.633333 0
0.0666667 0.633333 0
0.1 0.633333 0
0.133333 0.633333 0
0.166667 0.633333 0
0.2 0.633333 0
0.233333 0.633333 0
0.266667 0.633333 0
[...]
    <PointData>
      <DataArray type="Float64" NumberOfComponents="3" Name="Velocity" format="ascii">
0 0 0
0 0 0
0 0 0
0 0 0
0 0 0
0 0 0
0 0 0
0 0 0
0 0 0
0 0 0
0 0 0
0 0 0
0 0 0
0 0 0
0 0 0
0 0 0
0 0 0
0 0 0
0 0 0
0 0 0
0 0 0
0 0 0
0 0 0
0 0 0
0 0 0
0 0 0
0 0 0
0 0 0
0 0 0
0 0 0
0 0 0
0 0 0
-0.00049547 0.000448464 0
-0.00151111 0.0010081 0
-0.00319438 0.00155818 0
-0.00569276 0.00197794 0
-0.00865912 0.00222659 0
-0.0117463 0.00226333 0
-0.0148276 0.00216557 0
-0.0177761 0.00201069 0
-0.0204822 0.00179871 0
-0.0228357 0.00152964 0
-0.0247976 0.001225 0
-0.0263285 0.000906336 0
-0.0274015 0.000574427 0
-0.0279896 0.000230039 0
-0.0280853 -0.0001199 0
-0.0276809 -0.000468465 0
-0.026793 -0.000804019 0
-0.0254381 -0.00111492 0
-0.0236586 -0.00140136 0
-0.0214972 -0.00166352 0
-0.0190081 -0.00187517 0
-0.0162455 -0.00201012 0
-0.0133328 -0.00208175 0
-0.0103931 -0.00210342 0
-0.00752388 -0.00200883 0
-0.00482262 -0.00173163 0
-0.00259576 -0.00131465 0
-0.00114979 -0.000800723 0
-0.000334586 -0.000319341 0
0 0 0
0 0 0
-0.000758657 0.0011673 0
-0.0031972 0.00288296 0
-0.00700207 0.00458589 0
-0.0118597 0.00571502 0
-0.0173438 0.00633477 0
-0.023028 0.00650957 0
-0.0286542 0.00633781 0
-0.0339642 0.00591787 0
-0.0388106 0.00530296 0
-0.0430457 0.00454627 0
-0.0465905 0.00368424 0
-0.049366 0.0027533 0
-0.0513167 0.00176621 0
-0.0523873 0.000735731 0
-0.0525623 -0.00031312 0
-0.0518264 -0.00135532 0
-0.0502058 -0.00236199 0
-0.0477268 -0.00330426 0
-0.0444729 -0.00416131 0
-0.0405276 -0.00491229 0
-0.0360068 -0.00552438 0
-0.0310263 -0.00596476 0
-0.0257514 -0.00619312 0
-0.0203471 -0.00616917 0
-0.0150687 -0.00583735 0
-0.0101712 -0.00514211 0
-0.005954 -0.00402812 0
-0.00271646 -0.00244006 0
-0.000663491 -0.000917488 0
0 0 0
0 0 0
-0.00135391 0.00308066 0
-0.00530368 0.00663569 0
-0.0111034 0.00984845 0
-0.018007 0.0119023 0
-0.0255818 0.0129752 0
-0.0333947 0.013245 0
-0.041094 0.0128658 0
-0.048328 0.0119917 0
-0.0549296 0.0107385 0
-0.0607315 0.00922251 0
-0.0656092 0.00749538 0
-0.0694385 0.00560896 0
-0.0721388 0.00359905 0
-0.0736298 0.00150144 0
-0.0738877 -0.000633789 0
-0.0728888 -0.00275656 0
-0.0706698 -0.00480929 0
-0.0672676 -0.0067344 0
-0.0627979 -0.00847673 0
-0.0573762 -0.0099811 0
-0.0511805 -0.0112047 0
-0.0443885 -0.0121049 0
-0.0371865 -0.0125893 0
-0.0297607 -0.012566 0
-0.0224676 -0.0119587 0
-0.0156638 -0.0106911 0
-0.00962703 -0.00863804 0
-0.00463512 -0.0056739 0
-0.0012416 -0.0025456 0
0 0 0
0 0 0
-0.00284556 0.00711269 0
-0.00807595 0.0132774 0
-0.0151786 0.0181112 0
-0.0236408 0.0212309 0
-0.0329006 0.0227986 0
-0.0423958 0.022976 0
-0.0517611 0.0220988 0
-0.0606312 0.0205022 0
-0.0687834 0.0183313 0
-0.0759948 0.015731 0
-0.0820847 0.0127761 0
-0.0868721 0.00954138 0
-0.0902607 0.00609662 0
-0.092154 0.00251153 0
-0.0925185 -0.00113603 0
-0.0913207 -0.0047682 0
-0.0886165 -0.00828132 0
-0.0844619 -0.0115717 0
-0.0789886 -0.0145445 0
-0.0723283 -0.0171047 0
-0.064714 -0.0191734 0
-0.0563785 -0.0206714 0
-0.047569 -0.0215256 0
-0.0385323 -0.0216627 0
-0.0295536 -0.0208459 0
-0.0209183 -0.0188384 0
-0.0131671 -0.015642 0
-0.00684089 -0.0112581 0
-0.0023238 -0.00595482 0
0 0 0
0 0 0
-0.00399315 0.0116584 0
-0.0105561 0.0206818 0
-0.0191193 0.0272099 0
-0.0291132 0.0313822 0
-0.0398965 0.0334192 0
-0.0508278 0.0335415 0
-0.0615816 0.0322224 0
-0.0718323 0.0299351 0
-0.0812985 0.0268365 0
-0.0896986 0.0230832 0
-0.0968194 0.0187902 0
-0.102447 0.0140724 0
-0.106462 0.00903165 0
-0.108744 0.00376975 0
-0.10924 -0.00159425 0
-0.107899 -0.00694135 0
-0.104786 -0.012113 0
-0.09997 -0.0169508 0
-0.0936075 -0.0213149 0
-0.0858558 -0.0250659 0
-0.0769894 -0.0280737 0
-0.067283 -0.0302084 0
-0.05706 -0.0314339 0
-0.0466437 -0.0317144 0
-0.0362432 -0.0306999 0
-0.0260671 -0.0280406 0
-0.0167716 -0.0237183 0
-0.00901308 -0.0177146 0
-0.00326475 -0.00986377 0
0 0 0
0 0 0
-0.00355618 0.0151127 0
-0.0117862 0.0267225 0
-0.0228173 0.0349804 0
-0.0347765 0.0400373 0
-0.0471659 0.0424513 0
-0.0594872 0.0427803 0
-0.0714815 0.0414224 0
-0.0828897 0.0387759 0
-0.0934013 0.0350092 0
-0.102706 0.0302907 0
-0.110616 0.0248018 0
-0.116944 0.018724 0
-0.121523 0.0121769 0
-0.124184 0.00527987 0
-0.124839 -0.00178282 0
-0.1234 -0.00882709 0
-0.119919 -0.0156393 0
-0.114452 -0.022006 0
-0.107217 -0.0277383 0
-0.0984305 -0.0326474 0
-0.0883893 -0.0365493 0
-0.0773887 -0.0392597 0
-0.0658207 -0.0407462 0
-0.054077 -0.0409762 0
-0.0424526 -0.0397216 0
-0.0312424 -0.0367543 0
-0.0206379 -0.0315452 0
-0.010831 -0.0235651 0
-0.00341914 -0.0129911 0
0 0 0
0 0 0
-0.00320796 0.0212277 0
-0.0125499 0.0364558 0
-0.0252742 0.0465819 0
-0.038629 0.0525034 0
-0.0523316 0.0551515 0
-0.0660991 0.0554574 0
-0.079559 0.053751 0
-0.0923389 0.0503622 0
-0.104119 0.0455262 0
-0.11458 0.0394782 0
-0.123524 0.0324311 0
-0.130754 0.024598 0
-0.136056 0.0161182 0
-0.139218 0.00713083 0
-0.140121 -0.00211534 0
-0.138648 -0.0113717 0
-0.134841 -0.0203378 0
-0.128741 -0.0287131 0
-0.120603 -0.0362436 0
-0.110683 -0.0426756 0
-0.0993122 -0.0477786 0
-0.086823 -0.0513224 0
-0.0736684 -0.0532164 0
-0.0603015 -0.0533702 0
-0.0472485 -0.0517416 0
-0.0350359 -0.0482885 0
-0.0233988 -0.04217 0
-0.0120725 -0.0325453 0
-0.00346883 -0.0187201 0
0 0 0
0 0 0
-0.00462178 0.0337554 0
-0.0136309 0.0549383 0
-0.0254917 0.0671738 0
-0.0386689 0.0740873 0
-0.0530164 0.0767761 0
-0.0683881 0.0763377 0
-0.0839118 0.0732602 0
-0.0987153 0.0680316 0
-0.112479 0.0610643 0
-0.124884 0.0527707 0
-0.135592 0.0432988 0
-0.144266 0.0327965 0
-0.150675 0.0214415 0
-0.154588 0.00941156 0
-0.155891 -0.00300543 0
-0.154468 -0.0155215 0
-0.150375 -0.0276858 0
-0.143667 -0.0390475 0
-0.134553 -0.04926 0
-0.123243 -0.0579766 0
-0.110157 -0.0649401 0
-0.0957132 -0.0698932 0
-0.0804203 -0.0725984 0
-0.0647863 -0.0728182 0
-0.0496973 -0.0705902 0
-0.0360394 -0.0659518 0
-0.0236871 -0.0586398 0
-0.0125153 -0.0483908 0
-0.0040957 -0.0304344 0
0 0 0
0 0 0
-0.00533422 0.0433344 0
-0.0132838 0.0694355 0
-0.0237739 0.0839109 0
-0.0367298 0.0923679 0
-0.0517305 0.0957862 0
-0.068355 0.0951451 0
-0.0854407 0.0911732 0
-0.101825 0.084599 0
-0.117166 0.0759483 0
-0.131121 0.0657467 0
-0.143238 0.0541037 0
-0.153066 0.041129 0
-0.160376 0.0270643 0
-0.164938 0.0121512 0
-0.166643 -0.00327703 0
-0.165385 -0.0188874 0
-0.161217 -0.0341074 0
-0.154193 -0.0483645 0
-0.144469 -0.0612057 0
-0.132199 -0.0721777 0
-0.117854 -0.0809685 0
-0.101906 -0.087266 0
-0.0849147 -0.0906959 0
-0.06744 -0.0908836 0
-0.0505909 -0.0878287 0
-0.0354764 -0.0815305 0
-0.0224791 -0.0724879 0
-0.0119815 -0.0611995 0
-0.00436233 -0.039694 0
0 0 0
0 0 0
-0.00288187 0.040603 0
-0.00976347 0.0672134 0
-0.0204246 0.0839481 0
-0.0346449 0.0949243 0
-0.0509838 0.100642 0
-0.0680003 0.101603 0
-0.0850464 0.0987134 0
-0.101474 0.0928796 0
-0.116863 0.0845029 0
-0.130792 0.0739845 0
-0.14288 0.061545 0
-0.152742 0.0474053 0
-0.160159 0.0319037 0
-0.164909 0.015379 0
-0.16687 -0.00175412 0
-0.165922 -0.0190805 0
-0.16206 -0.0360267 0
-0.155282 -0.0520193 0
-0.145752 -0.0664988 0
-0.133635 -0.0789057 0
-0.119334 -0.0887983 0
-0.103248 -0.0957348 0
-0.0859904 -0.0993128 0
-0.0681711 -0.0991297 0
-0.0507211 -0.0950181 0
-0.0345706 -0.0868104 0
-0.0207509 -0.0752473 0
-0.0102931 -0.0610693 0
-0.00333131 -0.0380592 0
0 0 0
0 0 0
-0.00106548 0.0341711 0
-0.00761993 0.0599748 0
-0.0188938 0.0789459 0
-0.0341174 0.0926191 0
-0.0511554 0.101026 0
-0.0678727 0.104198 0
-0.0841707 0.103078 0
-0.0999509 0.0986068 0
-0.114714 0.0910478 0
-0.127961 0.0806643 0
-0.139422 0.0678473 0
-0.148827 0.0529882 0
-0.155971 0.0365166 0
-0.160651 0.0188625 0
-0.162739 0.00052362 0
-0.162105 -0.0180021 0
-0.158706 -0.036181 0
-0.152496 -0.0534793 0
-0.143637 -0.069264 0
-0.132292 -0.0829023 0
-0.118748 -0.093788 0
-0.103295 -0.101315 0
-0.0865566 -0.105057 0
-0.0691544 -0.104589 0
-0.0517608 -0.0995563 0
-0.0350479 -0.0896025 0
-0.0205127 -0.0753484 0
-0.00965183 -0.0574146 0
-0.00272708 -0.0331742 0
0 0 0
0 0 0
-0.0036858 0.0326486 0
-0.0114031 0.059423 0
-0.0226314 0.0805647 0
-0.03685 0.096315 0
-0.0526246 0.106618 0
-0.0685206 0.111417 0
-0.084255 0.111465 0
-0.0995448 0.107515 0
-0.113865 0.0999026 0
-0.126689 0.0889661 0
-0.137768 0.0752354 0
-0.146853 0.0592407 0
-0.153762 0.0414595 0
-0.158316 0.0223696 0
-0.160416 0.00251653 0
-0.15996 -0.0175539 0
-0.156953 -0.0373081 0
-0.151397 -0.0562122 0
-0.143359 -0.073626 0
-0.132905 -0.0889092 0
-0.120248 -0.101296 0
-0.105603 -0.110021 0
-0.0895227 -0.114536 0
-0.0725645 -0.114295 0
-0.0553832 -0.108841 0
-0.0386342 -0.0977176 0
-0.0237741 -0.0812212 0
-0.0122598 -0.05965 0
-0.00427407 -0.0326833 0
0 0 0
0 0 0
-0.00686976 0.0354052 0
-0.016071 0.0650633 0
-0.0273893 0.0887947 0
-0.0406104 0.10642 0
-0.0552157 0.118039 0
-0.0706865 0.123751 0
-0.0863499 0.124157 0
-0.101533 0.119858 0
-0.115719 0.111369 0
-0.12839 0.0992067 0
-0.139308 0.0840021 0
-0.148231 0.0663862 0
-0.155011 0.0468639 0
-0.1595 0.02594 0
-0.161633 0.00417002 0
-0.161349 -0.0178903 0
-0.158699 -0.0396839 0
-0.153735 -0.0606536 0
-0.146413 -0.0801519 0
-0.13669 -0.0975318 0
-0.124703 -0.1119 0
-0.110589 -0.122364 0
-0.0948213 -0.128197 0
-0.0778701 -0.12867 0
-0.0604828 -0.123201 0
-0.0434066 -0.111206 0
-0.027947 -0.0926403 0
-0.0154094 -0.067457 0
-0.00601878 -0.0363468 0
0 0 0
0 0 0
-0.0067443 0.0418108 0
-0.0165815 0.0764012 0
-0.0289195 0.103626 0
-0.043166 0.123342 0
-0.0587531 0.13591 0
-0.0751129 0.141692 0
-0.0915058 0.141437 0
-0.107192 0.135891 0
-0.121681 0.125749 0
-0.13448 0.111703 0
-0.145431 0.09444 0
-0.154373 0.0746481 0
-0.161199 0.0528613 0
-0.165798 0.0296135 0
-0.168126 0.00542954 0
-0.168134 -0.0191659 0
-0.16584 -0.0435848 0
-0.161259 -0.067239 0
-0.154298 -0.089409 0
-0.144862 -0.109375 0
-0.13298 -0.126178 0
-0.118676 -0.138857 0
-0.102385 -0.146485 0
-0.0845397 -0.148135 0
-0.0659542 -0.142961 0
-0.0474425 -0.130119 0
-0.0304428 -0.10938 0
-0.0163933 -0.0805171 0
-0.00600771 -0.0439251 0
0 0 0
0 0 0
-0.00552243 0.0494772 0
-0.0157006 0.0897553 0
-0.0293447 0.120819 0
-0.045265 0.142652 0
-0.0624808 0.155946 0
-0.0800111 0.161394 0
-0.0971735 0.160017 0
-0.113286 0.152835 0
-0.127931 0.140726 0
-0.140694 0.124567 0
-0.151511 0.105084 0
-0.160322 0.083001 0
-0.167078 0.0588755 0
-0.17173 0.0332639 0
-0.174246 0.00664498 0
-0.174591 -0.0205027 0
-0.172718 -0.0475824 0
-0.168575 -0.0739971 0
-0.162029 -0.0989553 0
-0.152945 -0.121665 0
-0.141236 -0.141119 0
-0.126814 -0.156308 0
-0.110045 -0.166071 0
-0.0912941 -0.169243 0
-0.0714215 -0.164652 0
-0.0512858 -0.151122 0
-0.0325437 -0.128212 0
-0.016852 -0.0954782 0
-0.00555574 -0.0527861 0
0 0 0
0 0 0
-0.00541717 0.0560159 0
-0.0161938 0.101444 0
-0.0307875 0.136131 0
-0.0476557 0.159921 0
-0.0656426 0.173865 0
-0.0835924 0.179012 0
-0.100804 0.176611 0
-0.116576 0.167909 0
-0.13065 0.153983 0
-0.142766 0.135913 0
-0.152924 0.114468 0
-0.161121 0.0904191 0
-0.167403 0.0643302 0
-0.171814 0.0367649 0
-0.174347 0.00816629 0
-0.174996 -0.0210227 0
-0.173673 -0.0502483 0
-0.170289 -0.0789568 0
-0.164625 -0.106349 0
-0.156461 -0.131627 0
-0.145628 -0.153712 0
-0.131953 -0.171529 0
-0.115631 -0.183625 0
-0.0968541 -0.188549 0
-0.0765089 -0.184801 0
-0.0554803 -0.170881 0
-0.0355316 -0.145905 0
-0.0184262 -0.108988 0
-0.00597775 -0.0602977 0
0 0 0
0 0 0
-0.00584794 0.0627731 0
-0.0173574 0.113259 0
-0.0327264 0.151311 0
-0.0501531 0.176783 0
-0.0683582 0.191087 0
-0.0860622 0.195634 0
-0.102602 0.191963 0
-0.117316 0.181615 0
-0.130116 0.165846 0
-0.140919 0.145912 0
-0.149811 0.122644 0
-0.156883 0.0968716 0
-0.16228 0.0691394 0
-0.16615 0.0399907 0
-0.168525 0.00982324 0
-0.169437 -0.0209651 0
-0.168774 -0.0519006 0
-0.166423 -0.0825091 0
-0.162075 -0.112043 0
-0.15542 -0.139753 0
-0.146173 -0.164483 0
-0.134051 -0.185072 0
-0.119034 -0.199801 0
-0.101105 -0.206947 0
-0.0810617 -0.204573 0
-0.059704 -0.190746 0
-0.0388994 -0.164035 0
-0.0205154 -0.123013 0
-0.00679971 -0.0681706 0
0 0 0
0 0 0
-0.00623415 0.0710945 0
-0.0184873 0.126988 0
-0.03464 0.168105 0
-0.0525726 0.194871 0
-0.0707471 0.209034 0
-0.0876258 0.212347 0
-0.102774 0.206818 0
-0.115758 0.194458 0
-0.126612 0.17664 0
-0.135373 0.154737 0
-0.142317 0.129662 0
-0.147721 0.102327 0
-0.151819 0.0732168 0
-0.154842 0.0428153 0
-0.156876 0.0114456 0
-0.158002 -0.0205694 0
-0.158088 -0.0528572 0
-0.157 -0.0850452 0
-0.154368 -0.116487 0
-0.149827 -0.146538 0
-0.142889 -0.173954 0
-0.133064 -0.197495 0
-0.120147 -0.215256 0
-0.103932 -0.225333 0
-0.084925 -0.225133 0
-0.063635 -0.212066 0
-0.0421402 -0.184178 0
-0.0225194 -0.139518 0
-0.00754759 -0.0781154 0
0 0 0
0 0 0
-0.00665174 0.0803785 0
-0.0197851 0.141898 0
-0.0367002 0.185743 0
-0.054697 0.213101 0
-0.0721445 0.226319 0
-0.0874115 0.227745 0
-0.100304 0.21986 0
-0.110628 0.205145 0
-0.11862 0.185122 0
-0.124516 0.16131 0
-0.128795 0.134655 0
-0.131939 0.106102 0
-0.134269 0.0760547 0
-0.136106 0.0449186 0
-0.137585 0.012912 0
-0.138845 -0.0197466 0
-0.139745 -0.0528115 0
-0.140144 -0.0860369 0
-0.139632 -0.118911 0
-0.137798 -0.150921 0
-0.133947 -0.180824 0
-0.127386 -0.207379 0
-0.117622 -0.228494 0
-0.104166 -0.242079 0
-0.0871855 -0.244863 0
-0.0668507 -0.23358 0
-0.0452714 -0.205447 0
-0.0245577 -0.157682 0
-0.00827786 -0.0894706 0
0 0 0
0 0 0
-0.00717669 0.0900232 0
-0.0214522 0.157252 0
-0.039079 0.203452 0
-0.0563096 0.230391 0
-0.0718854 0.241552 0
-0.0845475 0.240421 0
-0.0941766 0.229772 0
-0.100654 0.212384 0
-0.104625 0.190047 0
-0.106736 0.164551 0
-0.107603 0.136753 0
-0.107842 0.10751 0
-0.107883 0.0771452 0
-0.108157 0.0459804 0
-0.108843 0.014101 0
-0.110119 -0.0184079 0
-0.11187 -0.0514567 0
-0.113981 -0.0849562 0
-0.115991 -0.11854 0
-0.117443 -0.151844 0
-0.11752 -0.183791 0
-0.115408 -0.213309 0
-0.110112 -0.238022 0
-0.100638 -0.255556 0
-0.0869296 -0.262146 0
-0.0689288 -0.254027 0
-0.0483107 -0.226955 0
-0.0267504 -0.176682 0
-0.00904703 -0.101575 0
0 0 0
0 0 0
-0.00806067 0.100683 0
-0.0231559 0.173165 0
-0.0407666 0.220538 0
-0.056374 0.245893 0
-0.0689914 0.253908 0
-0.0776322 0.249264 0
-0.0825063 0.235206 0
-0.0838234 0.214982 0
-0.0826554 0.190513 0
-0.080074 0.16372 0
-0.0768049 0.135327 0
-0.0735734 0.106057 0
-0.0708962 0.0761202 0
-0.0692901 0.0457252 0
-0.0689649 0.0148146 0
-0.0701306 -0.0166688 0
-0.0727141 -0.0488017 0
-0.0766424 -0.0816606 0
-0.0814428 -0.115061 0
-0.0866424 -0.148819 0
-0.0913642 -0.182105 0
-0.0947312 -0.21409 0
-0.0952612 -0.242324 0
-0.0914718 -0.264352 0
-0.0827703 -0.275765 0
-0.0685635 -0.272152 0
-0.050123 -0.247638 0
-0.0287202 -0.196348 0
-0.0100982 -0.114922 0
0 0 0
0 0 0
-0.00955537 0.113012 0
-0.0245636 0.189753 0
-0.0407535 0.236307 0
-0.0538538 0.258758 0
-0.0624842 0.262559 0
-0.0652644 0.253165 0
-0.0634077 0.234814 0
-0.0581273 0.211748 0
-0.0507421 0.185619 0
-0.0425705 0.158079 0
-0.0344646 0.12975 0
-0.0272767 0.101248 0
-0.0215425 0.0726118 0
-0.0177978 0.0438775 0
-0.0162701 0.0148553 0
-0.0171869 -0.0146448 0
-0.0205248 -0.0448552 0
-0.0262606 -0.0760083 0
-0.0339818 -0.108158 0
-0.043276 -0.141358 0
-0.0532363 -0.175013 0
-0.0629559 -0.208528 0
-0.0707136 -0.239882 0
-0.0747884 -0.267055 0
-0.0733202 -0.284508 0
-0.0644493 -0.2867 0
-0.0495734 -0.266434 0
-0.0300903 -0.21651 0
-0.0116744 -0.130007 0
0 0 0
0 0 0
-0.0104959 0.125694 0
-0.0252739 0.205593 0
-0.0392769 0.249352 0
-0.0474475 0.266625 0
-0.0491093 0.264357 0
-0.0435858 0.249496 0
-0.0331051 0.22692 0
-0.0198954 0.201508 0
-0.00540736 0.174483 0
0.0089081 0.147072 0
0.0221593 0.119735 0
0.0334545 0.0929352 0
0.0423104 0.0665263 0
0.0482439 0.0403621 0
0.0510356 0.0141404 0
0.0504665 -0.0124408 0
0.0465078 -0.0397416 0
0.0391305 -0.068122 0
0.0286208 -0.0978716 0
0.0152645 -0.12928 0
-0.000111419 -0.162028 0
-0.0166802 -0.195795 0
-0.0326943 -0.229219 0
-0.0464063 -0.260938 0
-0.0547595 -0.284816 0
-0.0546973 -0.294715 0
-0.0464452 -0.281332 0
-0.0302284 -0.235364 0
-0.0125717 -0.145393 0
0 0 0
0 0 0
-0.00971732 0.137412 0
-0.0248855 0.219264 0
-0.0365742 0.258267 0
-0.0358534 0.267131 0
-0.0256119 0.256153 0
-0.00873817 0.235632 0
0.0121768 0.20985 0
0.0345424 0.183089 0
0.056826 0.156227 0
0.077495 0.130139 0
0.0958089 0.104998 0
0.111027 0.0809714 0
0.122795 0.0577702 0
0.130759 0.0351034 0
0.134746 0.0125873 0
0.134584 -0.0101618 0
0.130194 -0.0335853 0
0.121497 -0.0581246 0
0.108594 -0.084243 0
0.091587 -0.112404 0
0.0710351 -0.14266 0
0.0474975 -0.175065 0
0.0225719 -0.208858 0
-0.00214385 -0.243276 0
-0.023268 -0.273132 0
-0.0374189 -0.29324 0
-0.0405218 -0.290324 0
-0.0285021 -0.251106 0
-0.0115861 -0.159645 0
0 0 0
0 0 0
-0.00901793 0.150832 0
-0.0197972 0.229472 0
-0.0226318 0.257105 0
-0.00781574 0.254919 0
0.0179546 0.235201 0
0.0479827 0.21024 0
0.0798725 0.183041 0
0.111228 0.15661 0
0.140673 0.131456 0
0.166832 0.108087 0
0.189269 0.0863498 0
0.207552 0.0660893 0
0.221513 0.0469266 0
0.230988 0.0284828 0
0.235878 0.0103399 0
0.236089 -0.0079201 0
0.231499 -0.0267639 0
0.22199 -0.046658 0
0.207461 -0.0681494 0
0.187813 -0.0917848 0
0.163207 -0.117983 0
0.133806 -0.147164 0
0.100799 -0.179109 0
0.0653744 -0.213601 0
0.0304131 -0.247272 0
-0.00120283 -0.276754 0
-0.021016 -0.286572 0
-0.0205691 -0.261251 0
-0.0101383 -0.174493 0
0 0 0
0 0 0
-0.010196 0.16862 0
-0.00640821 0.234922 0
0.0125641 0.239922 0
0.0479216 0.22463 0
0.0915365 0.198751 0
0.135281 0.171986 0
0.177416 0.145934 0
0.216203 0.122191 0
0.250848 0.100779 0
0.280559 0.0817199 0
0.305327 0.0646037 0
0.32514 0.0490215 0
0.340066 0.034579 0
0.350171 0.0208818 0
0.355451 0.00754208 0
0.355904 -0.00582815 0
0.351388 -0.019655 0
0.341762 -0.0343644 0
0.326747 -0.0504684 0
0.306063 -0.0684787 0
0.279408 -0.0890693 0
0.246475 -0.112914 0
0.207703 -0.140284 0
0.163524 -0.171449 0
0.115543 -0.205053 0
0.0653618 -0.239736 0
0.0228592 -0.263242 0
-0.00208676 -0.263316 0
-0.00964889 -0.191666 0
0 0 0
0 0 0
0.0118934 0.164939 0
0.0465657 0.213324 0
0.0963144 0.198929 0
0.153437 0.17553 0
0.211804 0.148792 0
0.265287 0.12438 0
0.313283 0.102638 0
0.355191 0.0839083 0
0.391058 0.0678671 0
0.420932 0.0541899 0
0.445218 0.0423466 0
0.464323 0.0318067 0
0.478515 0.0222357 0
0.488061 0.0132992 0
0.493043 0.00468993 0
0.493541 -0.00389917 0
0.489414 -0.0128021 0
0.480516 -0.0223527 0
0.466454 -0.0329415 0
0.446834 -0.0449587 0
0.420969 -0.059154 0
0.388169 -0.0762769 0
0.347968 -0.0968589 0
0.299898 -0.121431 0
0.243902 -0.150257 0
0.179917 -0.183601 0
0.1151 -0.214326 0
0.0566042 -0.235297 0
0.0147854 -0.18452 0
0 0 0
2.77334e-30 0 0
0.0823951 0.113954 0
0.170409 0.142383 0
0.25592 0.12634 0
0.330808 0.106882 0
0.395427 0.087311 0
0.45013 0.0709297 0
0.495949 0.0572638 0
0.533917 0.0458392 0
0.565009 0.03639 0
0.590203 0.0286502 0
0.610183 0.0221659 0
0.625632 0.0164834 0
0.636917 0.0114052 0
0.644408 0.00673367 0
0.64823 0.00227958 0
0.648512 -0.00214636 0
0.645129 -0.00674871 0
0.637954 -0.011732 0
0.626585 -0.0173103 0
0.610622 -0.0236977 0
0.589224 -0.0314723 0
0.561551 -0.0412124 0
0.526281 -0.0533098 0
0.482091 -0.0681567 0
0.42727 -0.0866697 0
0.360107 -0.109766 0
0.279704 -0.133816 0
0.185163 -0.155191 0
0.0880678 -0.126411 0
2.77334e-30 0 0
0.25 0 0
0.35915 0.0481476 0
0.457445 0.0589811 0
0.540707 0.0505617 0
0.604756 0.0409509 0
0.654221 0.0318626 0
0.693729 0.025011 0
0.724995 0.0197412 0
0.749735 0.0153983 0
0.769168 0.0119128 0
0.784513 0.0092153 0
0.796388 0.0070532 0
0.805409 0.00517383 0
0.811878 0.00351681 0
0.816094 0.00202178 0
0.818165 0.000614962 0
0.818203 -0.000777417 0
0.816127 -0.00223473 0
0.811856 -0.00383637 0
0.805111 -0.00564104 0
0.795615 -0.00770746 0
0.782719 -0.0103218 0
0.765776 -0.0137701 0
0.743379 -0.0181768 0
0.714119 -0.0236663 0
0.675889 -0.0310107 0
0.626583 -0.0409823 0
0.56017 -0.0522089 0
0.470619 -0.0633181 0
0.364904 -0.0530138 0
0.25 0 0
1 0 0
1 0 0
1 0 0
1 0 0
1 0 0
1 0 0
1 0 0
1 0 0
1 0 0
1 0 0
1 0 0
1 0 0
1 0 0
1 0 0
1 0 0
1 0 0
1 0 0
1 0 0
1 0 0
1 0 0
1 0 0
1 0 0
1 0 0
1 0 0
1 0 0
1 0 0
1 0 0
1 0 0
1 0 0
1 0 0
1 0 0
      </DataArray> 
      <DataArray type="Float64" NumberOfComponents="3" Name="Real Velocity" format="ascii">
0 0 0
0 0 0
0 0 0
0 0 0
0 0 0
0 0 0
0 0 0
0 0 0
0 0 0
0 0 0
0 0 0
0 0 0
0 0 0