<?xml version="1.0"?>
<VTKFile type="UnstructuredGrid">
  <UnstructuredGrid>
  <Piece NumberOfPoints="961"  NumberOfCells="225">
    <Points>
      <DataArray type="Float64" NumberOfComponents="3" format="ascii">
0 0 0
0.0333333 0 0
0.0666667 0 0
0.1 0 0
0.133333 0 0
0.166667 0 0
0.2 0 0
0.233333 0 0
0.266667 0 0
0.3 0 0
0.333333 0 0
0.366667 0 0
0.4 0 0
0.433333 0 0
0.466667 0 0
0.5 0 0
0.533333 0 0
0.566667 0 0
0.6 0 0
0.633333 0 0
0.666667 0 0
0.7 0 0
0.733333 0 0
0.766667 0 0
0.8 0 0
0.833333 0 0
0.866667 0 0
0.9 0 0
0.933333 0 0
0.966667 0 0
1 0 0
0 0.0333333 0
0.0333333 0.0333333 0
0.0666667 0.0333333 0
0.1 0.0333333 0
0.133333 0.0333333 0
0.166667 0.0333333 0
0.2 0.0333333 0
0.233333 0.0333333 0
0.266667 0.0333333 0
0.3 0.0333333 0
0.333333 0.0333333 0
0.366667 0.0333333 0
0.4 0.0333333 0
0.433333 0.0333333 0
0.466667 0.0333333 0
0.5 0.0333333 0
0.533333 0.0333333 0
0.566667 0.0333333 0
0.6 0.0333333 0
0.633333 0.0333333 0
0.666667 0.0333333 0
0.7 0.0333333 0
0.733333 0.0333333 0
0.766667 0.0333333 0
0.8 0.0333333 0
0.833333 0.0333333 0
0.866667 0.0333333 0
0.9 0.0333333 0
0.933333 0.0333333 0
0.966667 0.0333333 0
1 0.0333333 0
0 0.0666667 0
0.0333333 0.0666667 0
0.0666667 0.0666667 0
0.1 0.0666667 0
0.133333 0.0666667 0
0.166667 0.0666667 0
0.2 0.0666667 0
0.233333 0.0666667 0
0.266667 0.0666667 0
0.3 0.0666667 0
0.333333 0.0666667 0
0.366667 0.0666667 0
0.4 0.0666667 0
0.433333 0.0666667 0
0.466667 0.0666667 0
0.5 0.0666667 0
0.533333 0.0666667 0
0.566667 0.0666667 0
0.6 0.0666667 0
0.633333 0.0666667 0
0.666667 0.0666667 0
0.7 0.0666667 0
0.733333 0.0666667 0
0.766667 0.0666667 0
0.8 0.0666667 0
0.833333 0.0666667 0
0.866667 0.0666667 0
0.9 0.0666667 0
0.933333 0.0666667 0
0.966667 0.0666667 0
1 0.0666667 0
0 0.1 0
0.0333333 0.1 0
0.0666667 0.1 0
0.1 0.1 0
0.133333 0.1 0
0.166667 0.1 0
0.2 0.1 0
0.233333 0.1 0
0.266667 0.1 0
0.3 0.1 0
0.333333 0.1 0
0.366667 0.1 0
0.4 0.1 0
0.433333 0.1 0
0.466667 0.1 0
0.5 0.1 0
0.533333 0.1 0
0.566667 0.1 0
0.6 0.1 0
0.633333 0.1 0
0.666667 0.1 0
0.7 0.1 0
0.733333 0.1 0
0.766667 0.1 0
0.8 0.1 0
0.833333 0.1 0
0.866667 0.1 0
0.9 0.1 0
0.933333 0.1 0
0.966667 0.1 0
1 0.1 0
0 0.133333 0
0.0333333 0.133333 0
0.0666667 0.133333 0
0.1 0.133333 0
0.133333 0.133333 0
0.166667 0.133333 0
0.2 0.133333 0
0.233333 0.133333 0
0.266667 0.133333 0
0.3 0.133333 0
0.333333 0.133333 0
0.366667 0.133333 0
0.4 0.133333 0
0.433333 0.133333 0
0.466667 0.133333 0
0.5 0.133333 0
0.533333 0.133333 0
0.566667 0.133333 0
0.6 0.133333 0
0.633333 0.133333 0
0.666667 0.133333 0
0.7 0.133333 0
0.733333 0.133333 0
0.766667 0.133333 0
0.8 0.133333 0
0.833333 0.133333 0
0.866667 0.133333 0
0.9 0.133333 0
0.933333 0.133333 0
0.966667 0.133333 0
1 0.133333 0
0 0.166667 0
0.0333333 0.166667 0
0.0666667 0.166667 0
0.1 0.166667 0
0.133333 0.166667 0
0.166667 0.166667 0
0.2 0.166667 0
0.233333 0.166667 0
0.266667 0.166667 0
0.3 0.166667 0
0.333333 0.166667 0
0.366667 0.166667 0
0.4 0.166667 0
0.433333 0.166667 0
0.466667 0.166667 0
0.5 0.166667 0
0.533333 0.166667 0
0.566667 0.166667 0
0.6 0.166667 0
0.633333 0.166667 0
0.666667 0.166667 0
0.7 0.166667 0
0.733333 0.166667 0
0.766667 0.166667 0
0.8 0.166667 0
0.833333 0.166667 0
0.866667 0.166667 0
0.9 0.166667 0
0.933333 0.166667 0
0.966667 0.166667 0
1 0.166667 0
0 0.2 0
0.0333333 0.2 0
0.0666667 0.2 0
0.1 0.2 0
0.133333 0.2 0
0.166667 0.2 0
0.2 0.2 0
0.233333 0.2 0
0.266667 0.2 0
0.3 0.2 0
0.333333 0.2 0
0.366667 0.2 0
0.4 0.2 0
0.433333 0.2 0
0.466667 0.2 0
0.5 0.2 0
0.533333 0.2 0
0.566667 0.2 0
0.6 0.2 0
0.633333 0.2 0
0.666667 0.2 0
0.7 0.2 0
0.733333 0.2 0
0.766667 0.2 0
0.8 0.2 0
0.833333 0.2 0
0.866667 0.2 0
0.9 0.2 0
0.933333 0.2 0
0.966667 0.2 0
1 0.2 0
0 0.233333 0
0.0333333 0.233333 0
0.0666667 0.233333 0
0.1 0.233333 0
0.133333 0.233333 0
0.166667 0.233333 0
0.2 0.233333 0
0.233333 0.233333 0
0.266667 0.233333 0
0.3 0.233333 0
0.333333 0.233333 0
0.366667 0.233333 0
0.4 0.233333 0
0.433333 0.233333 0
0.466667 0.233333 0
0.5 0.233333 0
0.533333 0.233333 0
0.566667 0.233333 0
0.6 0.233333 0
0.633333 0.233333 0
0.666667 0.233333 0
0.7 0.233333 0
0.733333 0.233333 0
0.766667 0.233333 0
0.8 0.233333 0
0.833333 0.233333 0
0.866667 0.233333 0
0.9 0.233333 0
0.933333 0.233333 0
0.966667 0.233333 0
1 0.233333 0
0 0.266667 0
0.0333333 0.266667 0
0.0666667 0.266667 0
0.1 0.266667 0
0.133333 0.266667 0
0.166667 0.266667 0
0.2 0.266667 0
0.233333 0.266667 0
0.266667 0.266667 0
0.3 0.266667 0
0.333333 0.266667 0
0.366667 0.266667 0
0.4 0.266667 0
0.433333 0.266667 0
0.466667 0.266667 0
0.5 0.266667 0
0.533333 0.266667 0
0.566667 0.266667 0
0.6 0.266667 0
0.633333 0.266667 0
0.666667 0.266667 0
0.7 0.266667 0
0.733333 0.266667 0
0.766667 0.266667 0
0.8 0.266667 0
0.833333 0.266667 0
0.866667 0.266667 0
0.9 0.266667 0
0.933333 0.266667 0
0.966667 0.266667 0
1 0.266667 0
0 0.3 0
0.0333333 0.3 0
0.0666667 0.3 0
0.1 0.3 0
0.133333 0.3 0
0.166667 0.3 0
0.2 0.3 0
0.233333 0.3 0
0.266667 0.3 0
0.3 0.3 0
0.333333 0.3 0
0.366667 0.3 0
0.4 0.3 0
0.433333 0.3 0
0.466667 0.3 0
0.5 0.3 0
0.533333 0.3 0
0.566667 0.3 0
0.6 0.3 0
0.633333 0.3 0
0.666667 0.3 0
0.7 0.3 0
0.733333 0.3 0
0.766667 0.3 0
0.8 0.3 0
0.833333 0.3 0
0.866667 0.3 0
0.9 0.3 0
0.933333 0.3 0
0.966667 0.3 0
1 0.3 0
0 0.333333 0
0.0333333 0.333333 0
0.0666667 0.333333 0
0.1 0.333333 0
0.133333 0.333333 0
0.166667 0.333333 0
0.2 0.333333 0
0.233333 0.333333 0
0.266667 0.333333 0
0.3 0.333333 0
0.333333 0.333333 0
0.366667 0.333333 0
0.4 0.333333 0
0.433333 0.333333 0
0.466667 0.333333 0
0.5 0.333333 0
0.533333 0.333333 0
0.566667 0.333333 0
0.6 0.333333 0
0.633333 0.333333 0
0.666667 0.333333 0
0.7 0.333333 0
0.733333 0.333333 0
0.766667 0.333333 0
0.8 0.333333 0
0.833333 0.333333 0
0.866667 0.333333 0
0.9 0.333333 0
0.933333 0.333333 0
0.966667 0.333333 0
1 0.333333 0
0 0.366667 0
0.0333333 0.366667 0
0.0666667 0.366667 0
0.1 0.366667 0
0.133333 0.366667 0
0.166667 0.366667 0
0.2 0.366667 0
0.233333 0.366667 0
0.266667 0.366667 0
0.3 0.366667 0
0.333333 0.366667 0
0.366667 0.366667 0
0.4 0.366667 0
0.433333 0.366667 0
0.466667 0.366667 0
0.5 0.366667 0
0.533333 0.366667 0
0.566667 0.366667 0
0.6 0.366667 0
0.633333 0.366667 0
0.666667 0.366667 0
0.7 0.366667 0
0.733333 0.366667 0
0.766667 0.366667 0
0.8 0.366667 0
0.833333 0.366667 0
0.866667 0.366667 0
0.9 0.366667 0
0.933333 0.366667 0
0.966667 0.366667 0
1 0.366667 0
0 0.4 0
0.0333333 0.4 0
0.0666667 0.4 0
0.1 0.4 0
0.133333 0.4 0
0.166667 0.4 0
0.2 0.4 0
0.233333 0.4 0
0.266667 0.4 0
0.3 0.4 0
0.333333 0.4 0
0.366667 0.4 0
0.4 0.4 0
0.433333 0.4 0
0.466667 0.4 0
0.5 0.4 0
0.533333 0.4 0
0.566667 0.4 0
0.6 0.4 0
0.633333 0.4 0
0.666667 0.4 0
0.7 0.4 0
0.733333 0.4 0
0.766667 0.4 0
0.8 0.4 0
0.833333 0.4 0
0.866667 0.4 0
0.9 0.4 0
0.933333 0.4 0
0.966667 0.4 0
1 0.4 0
0 0.433333 0
0.0333333 0.433333 0
0.0666667 0.433333 0
0.1 0.433333 0
0.133333 0.433333 0
0.166667 0.433333 0
0.2 0.433333 0
0.233333 0.433333 0
0.266667 0.433333 0
0.3 0.433333 0
0.333333 0.433333 0
0.366667 0.433333 0
0.4 0.433333 0
0.433333 0.433333 0
0.466667 0.433333 0
0.5 0.433333 0
0.533333 0.433333 0
0.566667 0.433333 0
0.6 0.433333 0
0.633333 0.433333 0
0.666667 0.433333 0
0.7 0.433333 0
0.733333 0.433333 0
0.766667 0.433333 0
0.8 0.433333 0
0.833333 0.433333 0
0.866667 0.433333 0
0.9 0.433333 0
0.933333 0.433333 0
0.966667 0.433333 0
1 0.433333 0
0 0.466667 0
0.0333333 0.466667 0
0.0666667 0.466667 0
0.1 0.466667 0
0.133333 0.466667 0
0.166667 0.466667 0
0.2 0.466667 0
0.233333 0.466667 0
0.266667 0.466667 0
0.3 0.466667 0
0.333333 0.466667 0
0.366667 0.466667 0
0.4 0.466667 0
0.433333 0.466667 0
0.466667 0.466667 0
0.5 0.466667 0
0.533333 0.466667 0
0.566667 0.466667 0
0.6 0.466667 0
0.633333 0.466667 0
0.666667 0.466667 0
0.7 0.466667 0
0.733333 0.466667 0
0.766667 0.466667 0
0.8 0.466667 0
0.833333 0.466667 0
0.866667 0.466667 0
0.9 0.466667 0
0.933333 0.466667 0
0.966667 0.466667 0
1 0.466667 0
0 0.5 0
0.0333333 0.5 0
0.0666667 0.5 0
0.1 0.5 0
0.133333 0.5 0
0.166667 0.5 0
0.2 0.5 0
0.233333 0.5 0
0.266667 0.5 0
0.3 0.5 0
0.333333 0.5 0
0.366667 0.5 0
0.4 0.5 0
0.433333 0.5 0
0.466667 0.5 0
0.5 0.5 0
0.533333 0.5 0
0.566667 0.5 0
0.6 0.5 0
0.633333 0.5 0
0.666667 0.5 0
0.7 0.5 0
0.733333 0.5 0
0.766667 0.5 0
0.8 0.5 0
0.833333 0.5 0
0.866667 0.5 0
0.9 0.5 0
0.933333 0.5 0
0.966667 0.5 0
1 0.5 0
0 0.533333 0
0.0333333 0.533333 0
0.0666667 0.533333 0
0.1 0.533333 0
0.133333 0.533333 0
0.166667 0.533333 0
0.2 0.533333 0
0.233333 0.533333 0
0.266667 0.533333 0
0.3 0.533333 0
0.333333 0.533333 0
0.366667 0.533333 0
0.4 0.533333 0
0.433333 0.533333 0
0.466667 0.533333 0
0.5 0.533333 0
0.533333 0.533333 0
0.566667 0.533333 0
0.6 0.533333 0
0.633333 0.533333 0
0.666667 0.533333 0
0.7 0.533333 0
0.733333 0.533333 0
0.766667 0.533333 0
0.8 0.533333 0
0.833333 0.533333 0
0.866667 0.533333 0
0.9 0.533333 0
0.933333 0.533333 0
0.966667 0.533333 0
1 0.533333 0
0 0.566667 0
0.0333333 0.566667 0
0.0666667 0.566667 0
0.1 0.566667 0
0.133333 0.566667 0
0.166667 0.566667 0
0.2 0.566667 0
0.233333 0.566667 0
0.266667 0.566667 0
0.3 0.566667 0
0.333333 0.566667 0
0.366667 0.566667 0
0.4 0.566667 0
0.433333 0.566667 0
0.466667 0.566667 0
0.5 0.566667 0
0.533333 0.566667 0
0.566667 0.566667 0
0.6 0.566667 0
0.633333 0.566667 0
0.666667 0.566667 0
0.7 0.566667 0
0.733333 0.566667 0
0.766667 0.566667 0
0.8 0.566667 0
0.833333 0.566667 0
0.866667 0.566667 0
0.9 0.566667 0
0.933333 0.566667 0
0.966667 0.566667 0
1 0.566667 0
0 0.6 0
0.0333333 0.6 0
0.0666667 0.6 0
0.1 0.6 0
0.133333 0.6 0
0.166667 0.6 0
0.2 0.6 0
0.233333 0.6 0
0.266667 0.6 0
0.3 0.6 0
0.333333 0.6 0
0.366667 0.6 0
0.4 0.6 0
0.433333 0.6 0
0.466667 0.6 0
0.5 0.6 0
0.533333 0.6 0
0.566667 0.6 0
0.6 0.6 0
0.633333 0.6 0
0.666667 0.6 0
0.7 0.6 0
0.733333 0.6 0
0.766667 0.6 0
0.8 0.6 0
0.833333 0.6 0
0.866667 0.6 0
0.9 0.6 0
0.933333 0.6 0
0.966667 0.6 0
1 0.6 0
0 0.633333 0
0.0333333 0.633333 0
0.0666667 0.633333 0
0.1 0.633333 0
0.133333 0.633333 0
0.166667 0.633333 0
0.2 0.633333 0
0.233333 0.633333 0
0.266667 0.633333 0
[...]
    <PointData>
      <DataArray type="Float64" NumberOfComponents="3" Name="Velocity" format="ascii">
0 0 0
0 0 0
0 0 0
0 0 0
0 0 0
0 0 0
0 0 0
0 0 0
0 0 0
0 0 0
0 0 0
0 0 0
0 0 0
0 0 0
0 0 0
0 0 0
0 0 0
0 0 0
0 0 0
0 0 0
0 0 0
0 0 0
0 0 0
0 0 0
0 0 0
0 0 0
0 0 0
0 0 0
0 0 0
0 0 0
0 0 0
0 0 0
-0.0067408 0.000739832 0
-0.00977437 0.000920757 0
-0.0109236 0.000845292 0
-0.0120114 0.000815954 0
-0.0130835 0.000803128 0
-0.0141857 0.000777197 0
-0.0152509 0.00073268 0
-0.0162121 0.000664095 0
-0.0170775 0.000584351 0
-0.0178551 0.000506356 0
-0.018517 0.000423407 0
-0.0190354 0.000328799 0
-0.0194187 0.000228898 0
-0.0196753 0.000130074 0
-0.0197917 3.13094e-05 0
-0.0197544 -6.84121e-05 0
-0.0195734 -0.0001703 0
-0.0192593 -0.000275564 0
-0.0188009 -0.000378191 0
-0.0181875 -0.000472166 0
-0.0174443 -0.000560273 0
-0.0165967 -0.000645296 0
-0.0156389 -0.000723276 0
-0.0145649 -0.000790256 0
-0.0134279 -0.000837009 0
-0.0122809 -0.000854306 0
-0.0110976 -0.000885971 0
-0.0098517 -0.000975826 0
-0.00675016 -0.000791345 0
0 0 0
0 0 0
-0.00876244 0.00158481 0
-0.01264 0.00216413 0
-0.0141477 0.00223572 0
-0.0158004 0.00229736 0
-0.0175273 0.00231122 0
-0.0192575 0.00223947 0
-0.0209396 0.00210876 0
-0.0225223 0.00194571 0
-0.0239641 0.0017457 0
-0.0252237 0.0015041 0
-0.0262898 0.00123735 0
-0.0271511 0.00096185 0
-0.0277929 0.000676978 0
-0.0282005 0.000382105 0
-0.0283746 8.02763e-05 0
-0.0283158 -0.00022546 0
-0.0280186 -0.000530627 0
-0.0274774 -0.000830747 0
-0.0267045 -0.00112698 0
-0.0257121 -0.00142048 0
-0.0245062 -0.00169295 0
-0.0230927 -0.00192609 0
-0.0215105 -0.00212458 0
-0.0197984 -0.00229308 0
-0.0180181 -0.00240665 0
-0.0162315 -0.00244034 0
-0.01448 -0.00240462 0
-0.0128053 -0.00230996 0
-0.00878579 -0.00167041 0
0 0 0
0 0 0
-0.00861296 0.00240315 0
-0.0124146 0.00357099 0
-0.0139903 0.00401798 0
-0.0159253 0.00425859 0
-0.0180429 0.00431798 0
-0.0201664 0.00422131 0
-0.0222469 0.0040049 0
-0.0242356 0.00370506 0
-0.0260575 0.00332456 0
-0.0276375 0.00286613 0
-0.0289744 0.00235959 0
-0.0300667 0.00183475 0
-0.0308833 0.00129015 0
-0.031393 0.000724341 0
-0.031605 0.000144438 0
-0.0315286 -0.000442431 0
-0.0311486 -0.0010273 0
-0.0304497 -0.00160122 0
-0.0294599 -0.00216415 0
-0.0282071 -0.00271608 0
-0.0266895 -0.00322902 0
-0.0249052 -0.003675 0
-0.0229205 -0.0040412 0
-0.0208017 -0.00431486 0
-0.0186249 -0.00447527 0
-0.016466 -0.00450175 0
-0.0144389 -0.00432116 0
-0.0126573 -0.00386033 0
-0.00866351 -0.00259478 0
0 0 0
0 0 0
-0.00884043 0.00306307 0
-0.0129158 0.00498222 0
-0.0147694 0.00603877 0
-0.0169443 0.00651403 0
-0.0193419 0.00661713 0
-0.0218631 0.00655719 0
-0.0243532 0.00629775 0
-0.0266571 0.00580238 0
-0.0287554 0.00516144 0
-0.0306284 0.00446531 0
-0.0322269 0.0037079 0
-0.0335017 0.0028831 0
-0.0344503 0.00201433 0
-0.0350701 0.00112503 0
-0.0353395 0.000221333 0
-0.0352371 -0.000690613 0
-0.0347766 -0.00160666 0
-0.0339716 -0.00252265 0
-0.0328166 -0.00340751 0
-0.0313059 -0.00423013 0
-0.029498 -0.00499951 0
-0.0274512 -0.00572462 0
-0.0251744 -0.00631045 0
-0.0226764 -0.00666195 0
-0.0201028 -0.00680918 0
-0.0175992 -0.00678216 0
-0.0152661 -0.00640076 0
-0.0132041 -0.00548485 0
-0.00893988 -0.00352205 0
0 0 0
0 0 0
-0.00911884 0.0039572 0
-0.0135264 0.00661966 0
-0.0157204 0.00822998 0
-0.0181983 0.00903074 0
-0.0209121 0.00928084 0
-0.0238142 0.00923918 0
-0.0266865 0.00888378 0
-0.0293112 0.00819263 0
-0.0316977 0.00729409 0
-0.033855 0.00631651 0
-0.0357031 0.00524911 0
-0.0371622 0.00408111 0
-0.0382458 0.00284725 0
-0.0389678 0.00158225 0
-0.0392884 0.000296109 0
-0.0391678 -0.00100116 0
-0.0386367 -0.00230388 0
-0.037726 -0.00360638 0
-0.0364107 -0.00486176 0
-0.0346661 -0.00602313 0
-0.032586 -0.00709835 0
-0.030264 -0.00809531 0
-0.0276851 -0.00889936 0
-0.024834 -0.00939585 0
-0.0218866 -0.00957587 0
-0.0190186 -0.00943048 0
-0.0163194 -0.00875949 0
-0.0138783 -0.0073627 0
-0.00925273 -0.00464218 0
0 0 0
0 0 0
-0.00912218 0.00547814 0
-0.0136294 0.00870516 0
-0.0160789 0.0105235 0
-0.0190279 0.0117758 0
-0.0222418 0.0123813 0
-0.0254858 0.0122594 0
-0.0286745 0.0116595 0
-0.0317222 0.0108308 0
-0.0345242 0.00976025 0
-0.0369761 0.00843456 0
-0.039059 0.00695005 0
-0.0407541 0.00540301 0
-0.0420217 0.00378662 0
-0.0428223 0.00209406 0
-0.043162 0.000353911 0
-0.043047 -0.00140522 0
-0.042463 -0.00315416 0
-0.0413955 -0.00486373 0
-0.0398784 -0.00653162 0
-0.0379453 -0.00815554 0
-0.0356077 -0.00961947 0
-0.0328767 -0.0108074 0
-0.0298654 -0.011775 0
-0.0266864 -0.012578 0
-0.0234115 -0.0129428 0
-0.0201122 -0.0125956 0
-0.0169565 -0.0115134 0
-0.0141122 -0.00967309 0
-0.00923987 -0.00614511 0
0 0 0
0 0 0
-0.00917127 0.00692195 0
-0.0139392 0.0110319 0
-0.0168351 0.0133888 0
-0.0203906 0.0150515 0
-0.0242409 0.0158714 0
-0.0280215 0.0157 0
-0.0317103 0.0149113 0
-0.0352855 0.0138792 0
-0.0385726 0.0125375 0
-0.0413974 0.0108198 0
-0.0437827 0.00888934 0
-0.0457509 0.00690943 0
-0.0472332 0.00484615 0
-0.0481605 0.00266564 0
-0.0485541 0.000412856 0
-0.0484352 -0.00186724 0
-0.0477712 -0.0041247 0
-0.0465292 -0.00630956 0
-0.0447732 -0.00844761 0
-0.0425669 -0.0105646 0
-0.0398772 -0.0124657 0
-0.0366708 -0.0139562 0
-0.0331387 -0.0151471 0
-0.0294719 -0.0161494 0
-0.0257268 -0.0166081 0
-0.0219598 -0.0161682 0
-0.0182898 -0.0148062 0
-0.0148357 -0.012499 0
-0.00945375 -0.0079843 0
0 0 0
0 0 0
-0.00958692 0.00758468 0
-0.0151702 0.0133933 0
-0.0189793 0.0172953 0
-0.0232436 0.0191602 0
-0.0278197 0.0197042 0
-0.0325645 0.0196433 0
-0.0371871 0.0189259 0
-0.0413966 0.0175002 0
-0.0451801 0.0156033 0
-0.0485244 0.0134724 0
-0.0513621 0.0111456 0
-0.053626 0.00866097 0
-0.0553354 0.00603953 0
-0.0565094 0.00330217 0
-0.0570584 0.000491056 0
-0.0568927 -0.00235164 0
-0.056077 -0.00518265 0
-0.054676 -0.00795873 0
-0.0526488 -0.0106402 0
-0.0499545 -0.0131875 0
-0.0467088 -0.01554 0
-0.0430277 -0.0176373 0
-0.0389286 -0.0192255 0
-0.034429 -0.020051 0
-0.0298821 -0.02027 0
-0.0256412 -0.0200386 0
-0.0214316 -0.0187815 0
-0.0169787 -0.0159234 0
-0.0104468 -0.0101132 0
0 0 0
0 0 0
-0.0100392 0.00964495 0
-0.0161287 0.016604 0
-0.0204608 0.0211994 0
-0.0252276 0.0237537 0
-0.0305086 0.0247138 0
-0.0363837 0.0245269 0
-0.0421397 0.0233971 0
-0.0470635 0.0215287 0
-0.0513808 0.0191375 0
-0.055317 0.0164392 0
-0.0586929 0.0135236 0
-0.0613291 0.0104805 0
-0.0633251 0.00727113 0
-0.0647802 0.00385686 0
-0.0655082 0.000321346 0
-0.0653229 -0.0032517 0
-0.0643762 -0.0067981 0
-0.0628202 -0.0102537 0
-0.0604878 -0.0136132 0
-0.0572119 -0.0168716 0
-0.0533097 -0.0198594 0
-0.0490981 -0.0224074 0
-0.0443098 -0.0243804 0
-0.0386773 -0.0256438 0
-0.0330344 -0.0259618 0
-0.0282148 -0.0250989 0
-0.0236156 -0.0233141 0
-0.0186341 -0.0208661 0
-0.0113892 -0.0142598 0
0 0 0
0 0 0
-0.010198 0.0152814 0
-0.0156206 0.021479 0
-0.0192288 0.024058 0
-0.0239832 0.0284838 0
-0.0298382 0.0317345 0
-0.0367481 0.0307883 0
-0.0436032 0.0280187 0
-0.0492939 0.0257997 0
-0.0542085 0.0233196 0
-0.0587353 0.0197668 0
-0.0626704 0.0158282 0
-0.0658097 0.0121908 0
-0.068199 0.00844534 0
-0.0698839 0.00418293 0
-0.0707366 -0.000363439 0
-0.070629 -0.00496071 0
-0.0696645 -0.00944109 0
-0.0679461 -0.0136368 0
-0.0652727 -0.0178703 0
-0.0614433 -0.0224642 0
-0.056887 -0.026441 0
-0.0520327 -0.0288232 0
-0.0463571 -0.030982 0
-0.0393365 -0.0342887 0
-0.0323407 -0.0357171 0
-0.0267389 -0.0322412 0
-0.0220755 -0.0282786 0
-0.0178947 -0.028247 0
-0.0114512 -0.0221521 0
0 0 0
0 0 0
-0.00837964 0.0191274 0
-0.0138961 0.024465 0
-0.0183753 0.0255162 0
-0.0236431 0.0317844 0
-0.0299967 0.0372561 0
-0.0377332 0.0359174 0
-0.0455225 0.0319772 0
-0.0520342 0.0296442 0
-0.0577069 0.027236 0
-0.0629791 0.0230703 0
-0.0675896 0.0183448 0
-0.0712768 0.0142578 0
-0.0740604 0.0100834 0
-0.0759599 0.00509579 0
-0.0769241 -0.000329637 0
-0.076902 -0.00581754 0
-0.0759169 -0.0111203 0
-0.0739922 -0.0159903 0
-0.0709443 -0.0210118 0
-0.0665899 -0.0267687 0
-0.0613697 -0.0315914 0
-0.0557243 -0.0338099 0
-0.049006 -0.0360348 0
-0.0405672 -0.0408767 0
-0.0322571 -0.0430413 0
-0.0259251 -0.0372342 0
-0.0207344 -0.0309909 0
-0.0158485 -0.0318465 0
-0.00951954 -0.0260874 0
0 0 0
0 0 0
-0.0029002 0.0158161 0
-0.0112052 0.0220086 0
-0.0209926 0.0252191 0
-0.02834 0.0320894 0
-0.0351724 0.0377681 0
-0.0434147 0.0374042 0
-0.0518424 0.0344588 0
-0.0592308 0.0323931 0
-0.0659196 0.029973 0
-0.0722484 0.0259644 0
-0.0777456 0.0213588 0
-0.0819395 0.0171477 0
-0.0850126 0.0127065 0
-0.0871472 0.00741084 0
-0.0882512 0.00165642 0
-0.0882326 -0.00416107 0
-0.0871088 -0.00984449 0
-0.0848971 -0.0151967 0
-0.0814432 -0.020638 0
-0.0765929 -0.0265887 0
-0.0706867 -0.0316174 0
-0.0640655 -0.0342925 0
-0.0561922 -0.0365432 0
-0.0465297 -0.0402988 0
-0.03724 -0.0414399 0
-0.030485 -0.0358472 0
-0.0235158 -0.0287668 0
-0.0135835 -0.0254453 0
-0.0044808 -0.0183629 0
0 0 0
0 0 0
0.000568336 0.0113083 0
-0.0108933 0.0205787 0
-0.0257375 0.0282714 0
-0.0353167 0.0348468 0
-0.0429755 0.0392232 0
-0.052058 0.0403186 0
-0.0614247 0.0392317 0
-0.0699357 0.0370613 0
-0.0778095 0.0339448 0
-0.0852644 0.03002 0
-0.0916782 0.0255588 0
-0.0964289 0.0208335 0
-0.0998575 0.0156606 0
-0.102305 0.00985674 0
-0.103593 0.00368759 0
-0.103542 -0.00258116 0
-0.10221 -0.00886656 0
-0.0996544 -0.0150857 0
-0.0957419 -0.0212243 0
-0.09034 -0.027268 0
-0.0836419 -0.0326183 0
-0.0758406 -0.0366767 0
-0.0666391 -0.039534 0
-0.0557407 -0.0412812 0
-0.0452983 -0.040808 0
-0.0374652 -0.037004 0
-0.0280925 -0.03015 0
-0.0130316 -0.0205271 0
-0.000821181 -0.00989156 0
0 0 0
0 0 0
-0.00364597 0.0115649 0
-0.0163059 0.026644 0
-0.031267 0.0397774 0
-0.0418164 0.0455051 0
-0.0510162 0.0475739 0
-0.0619285 0.0497307 0
-0.0731309 0.0500643 0
-0.0832008 0.0466637 0
-0.0923396 0.0415659 0
-0.100749 0.0368076 0
-0.107927 0.0316336 0
-0.113376 0.0252886 0
-0.117397 0.0182917 0
-0.120292 0.0111621 0
-0.121824 0.00385677 0
-0.121752 -0.00366764 0
-0.120192 -0.0114395 0
-0.117258 -0.0194873 0
-0.112813 -0.027246 0
-0.106719 -0.0341506 0
-0.0990391 -0.0406937 0
-0.0898337 -0.0473682 0
-0.0790706 -0.0520338 0
-0.0667168 -0.0525501 0
-0.0544411 -0.0510406 0
-0.0439124 -0.0496289 0
-0.0321378 -0.043684 0
-0.0161243 -0.0285754 0
-0.00302684 -0.0115862 0
0 0 0
0 0 0
-0.010016 0.0164799 0
-0.0229937 0.0377173 0
-0.0365571 0.0553597 0
-0.0483302 0.0610548 0
-0.0600653 0.0616503 0
-0.0735143 0.0639939 0
-0.0870042 0.0644446 0
-0.0988622 0.0593614 0
-0.109338 0.0520139 0
-0.118682 0.0456718 0
-0.126582 0.038975 0
-0.132726 0.0305636 0
-0.137343 0.0214228 0
-0.140662 0.0125378 0
-0.142429 0.00360959 0
-0.142387 -0.00566092 0
-0.140687 -0.0153575 0
-0.137479 -0.025564 0
-0.132558 -0.0354048 0
-0.125721 -0.0440043 0
-0.116986 -0.0524672 0
-0.106373 -0.0618978 0
-0.0939339 -0.0687776 0
-0.0797205 -0.0695878 0
-0.0649388 -0.0680835 0
-0.0507944 -0.06802 0
-0.0364371 -0.062138 0
-0.0210167 -0.0431785 0
-0.0077865 -0.0196347 0
0 0 0
0 0 0
-0.0130147 0.0259472 0
-0.0265073 0.0513111 0
-0.0405836 0.0706411 0
-0.0553497 0.0784869 0
-0.0708936 0.0802825 0
-0.0873034 0.0814619 0
-0.103088 0.0798609 0
-0.116756 0.0733152 0
-0.128633 0.0644666 0
-0.139046 0.055957 0
-0.14773 0.0469751 0
-0.154423 0.0367095 0
-0.159407 0.025877 0
-0.162967 0.0151944 0
-0.164892 0.0043917 0
-0.164973 -0.00680138 0
-0.163332 -0.0184147 0
-0.16009 -0.0304782 0
-0.154881 -0.0424022 0
-0.147336 -0.0535972 0
-0.137592 -0.0645623 0
-0.125787 -0.0757963 0
-0.111677 -0.0845007 0
-0.0950147 -0.0878767 0
-0.077062 -0.0878823 0
-0.059079 -0.0864755 0
-0.041776 -0.0782813 0
-0.0258634 -0.0579249 0
-0.0117889 -0.0302249 0
0 0 0
0 0 0
-0.014208 0.0370371 0
-0.0286979 0.0663271 0
-0.0445157 0.0868401 0
-0.0627072 0.0975464 0
-0.0819368 0.101216 0
-0.100869 0.100617 0
-0.118413 0.0960742 0
-0.133478 0.0879103 0
-0.146392 0.0776181 0
-0.157482 0.0666903 0
-0.166569 0.0551735 0
-0.173471 0.0431142 0
-0.178534 0.0307483 0
-0.182101 0.0183117 0
-0.184059 0.00564386 0
-0.184295 -0.00741601 0
-0.182853 -0.0208617 0
-0.179777 -0.0346871 0
-0.174585 -0.0487279 0
-0.166795 -0.06282 0
-0.156559 -0.076575 0
-0.144026 -0.0896047 0
-0.128686 -0.100352 0
-0.110027 -0.10726 0
-0.0893673 -0.109504 0
-0.0680247 -0.106261 0
-0.0477392 -0.0950423 0
-0.030251 -0.0733616 0
-0.0146434 -0.0415651 0
0 0 0
0 0 0
-0.0151617 0.0468199 0
-0.0314169 0.0816668 0
-0.0495225 0.105175 0
-0.0702351 0.117979 0
-0.0916302 0.122195 0
-0.111783 0.119942 0
-0.130009 0.112845 0
-0.145623 0.102532 0
-0.15878 0.0901626 0
-0.169634 0.0768987 0
-0.178296 0.0631098 0
-0.184877 0.0491656 0
-0.189667 0.0351305 0
-0.192958 0.0210692 0
-0.194773 0.00680684 0
-0.195137 -0.00783177 0
-0.193978 -0.0229492 0
-0.191222 -0.0386481 0
-0.186473 -0.0548717 0
-0.179331 -0.0715633 0
-0.169589 -0.0881012 0
-0.15704 -0.103864 0
-0.14135 -0.11748 0
-0.122186 -0.127579 0
-0.100411 -0.132015 0
-0.0768901 -0.128641 0
-0.0539115 -0.11535 0
-0.0337656 -0.0900357 0
-0.0159593 -0.0518639 0
0 0 0
0 0 0
-0.0160406 0.0568632 0
-0.0344406 0.0983844 0
-0.0549387 0.125639 0
-0.0772735 0.139703 0
-0.0995267 0.143297 0
-0.11978 0.139143 0
-0.137624 0.129483 0
-0.152651 0.116555 0
-0.164954 0.101653 0
-0.174628 0.0860681 0
-0.182077 0.0702008 0
-0.187705 0.0544512 0
-0.191756 0.0388415 0
-0.194473 0.0233939 0
-0.195988 0.00784888 0
-0.196432 -0.00805313 0
-0.195656 -0.0245733 0
-0.193511 -0.0419728 0
-0.189705 -0.0602067 0
-0.183945 -0.07923 0
-0.175638 -0.0985069 0
-0.164194 -0.117501 0
-0.149399 -0.134532 0
-0.131043 -0.147918 0
-0.109482 -0.154924 0
-0.085071 -0.152812 0
-0.060163 -0.138457 0
-0.0371102 -0.108729 0
-0.01677 -0.06284 0
0 0 0
0 0 0
-0.0170092 0.0687347 0
-0.0375453 0.117534 0
-0.0600995 0.148226 0
-0.0831628 0.162638 0
-0.105179 0.164598 0
-0.124591 0.15793 0
-0.141003 0.145296 0
-0.154018 0.129356 0
-0.164069 0.111642 0
-0.171591 0.0936842 0
-0.177077 0.075863 0
-0.181022 0.0585587 0
-0.183749 0.0416992 0
-0.185579 0.0252126 0
-0.186653 0.00873822 0
-0.187108 -0.00808458 0
-0.186836 -0.0256302 0
-0.185727 -0.0442729 0
-0.183441 -0.064106 0
-0.179638 -0.085223 0
-0.17366 -0.107158 0
-0.164852 -0.129445 0
-0.152565 -0.150155 0
-0.136152 -0.167359 0
-0.115866 -0.177739 0
-0.0919631 -0.177972 0
-0.0663636 -0.163616 0
-0.0409878 -0.130223 0
-0.0181089 -0.0762123 0
0 0 0
0 0 0
-0.0182611 0.0824077 0
-0.0403398 0.138429 0
-0.063899 0.171563 0
-0.0866015 0.18531 0
-0.107105 0.184666 0
-0.124067 0.174626 0
-0.137338 0.158418 0
-0.146766 0.139271 0
-0.153208 0.118827 0
-0.15752 0.0987281 0
-0.160219 0.0793021 0
-0.161817 0.0608784 0
-0.162725 0.0432559 0
-0.163353 0.0262334 0
-0.163814 0.00934827 0
-0.164223 -0.00786221 0
-0.164548 -0.0258701 0
-0.164755 -0.0451475 0
-0.16445 -0.0659801 0
-0.163238 -0.0886535 0
-0.160519 -0.1128 0
-0.155691 -0.138052 0
-0.147571 -0.16246 0
-0.13497 -0.184074 0
-0.117805 -0.198802 0
-0.0959904 -0.202552 0
-0.0710746 -0.189482 0
-0.0446077 -0.153749 0
-0.0198345 -0.0917799 0
0 0 0
0 0 0
-0.0199896 0.0978555 0
-0.0424327 0.160383 0
-0.0652315 0.194279 0
-0.086288 0.206242 0
-0.103823 0.202068 0
-0.116058 0.187554 0
-0.12382 0.166983 0
-0.127937 0.144637 0
-0.129453 0.121906 0
-0.129414 0.10018 0
-0.128422 0.0797238 0
-0.127077 0.0608008 0
-0.125764 0.0430636 0
-0.124867 0.0261643 0
-0.124514 0.00955245 0
-0.124833 -0.00732212 0
-0.125823 -0.0250436 0
-0.127482 -0.0441961 0
-0.129502 -0.0652394 0
-0.131575 -0.0886328 0
-0.133078 -0.114179 0
-0.133388 -0.141682 0
-0.131137 -0.16956 0
-0.124959 -0.196234 0
-0.113542 -0.216457 0
-0.0955767 -0.224983 0
-0.0728575 -0.21471 0
-0.0471789 -0.178538 0
-0.021805 -0.109342 0
0 0 0
0 0 0
-0.0209953 0.113747 0
-0.0433522 0.181855 0
-0.0642239 0.214736 0
-0.0807637 0.222799 0
-0.0918856 0.213381 0
-0.0965034 0.193815 0
-0.0964494 0.169052 0
-0.0935556 0.144045 0
-0.0889296 0.119788 0
-0.0836786 0.097277 0
-0.0784217 0.0766444 0
-0.0737778 0.0580238 0
-0.0700286 0.0409318 0
-0.0674557 0.0248849 0
-0.0661898 0.00926939 0
-0.0663617 -0.00652869 0
-0.0679953 -0.0231802 0
-0.0711143 -0.0413561 0
-0.0755751 -0.0616622 0
-0.0812343 -0.0847043 0
-0.0875214 -0.110522 0
-0.0938656 -0.139157 0
-0.0989442 -0.169579 0
-0.101434 -0.200763 0
-0.0988148 -0.226866 0
-0.0885639 -0.242047 0
-0.0714228 -0.237085 0
-0.0481326 -0.20276 0
-0.0229171 -0.127567 0
0 0 0
0 0 0
-0.0200791 0.128752 0
-0.0426263 0.201306 0
-0.0610028 0.231294 0
-0.0685699 0.232348 0
-0.0678446 0.215181 0
-0.061344 0.190507 0
-0.0512258 0.162687 0
-0.0396476 0.136087 0
-0.0277612 0.111383 0
-0.0167184 0.0892536 0
-0.00695156 0.0695804 0
0.00110721 0.0522454 0
0.00732026 0.0366699 0
0.01155 0.0222752 0
0.0137235 0.00841772 0
0.013768 -0.00554631 0
0.0116017 -0.0203096 0
0.00714311 -0.036565 0
0.000354284 -0.0550272 0
-0.00880259 -0.0764114 0
-0.0200351 -0.101056 0
-0.0330507 -0.1293 0
-0.0466703 -0.160644 0
-0.0597147 -0.194587 0
-0.069363 -0.226193 0
-0.0727938 -0.250527 0
-0.0664815 -0.254392 0
-0.0469001 -0.224591 0
-0.0220672 -0.145126 0
0 0 0
0 0 0
-0.0190817 0.145191 0
-0.0366981 0.216925 0
-0.0455934 0.237436 0
-0.0385115 0.228956 0
-0.0218236 0.204165 0
-0.00190062 0.175741 0
0.01933 0.146771 0
0.0399407 0.120339 0
0.0589543 0.0967848 0
0.0753932 0.0764482 0
0.0891583 0.0589364 0
0.100151 0.0438566 0
0.108416 0.0305951 0
0.114002 0.0185381 0
0.116921 0.00706247 0
0.117184 -0.00445488 0
0.114652 -0.0166673 0
0.109186 -0.0302282 0
0.100561 -0.0458809 0
0.0885545 -0.0643686 0
0.0730494 -0.086313 0
0.0539291 -0.112336 0
0.0320024 -0.142422 0
0.00807763 -0.176557 0
-0.0155352 -0.211556 0
-0.0365263 -0.244235 0
-0.0469775 -0.259201 0
-0.0389711 -0.241059 0
-0.0206106 -0.163447 0
0 0 0
0 0 0
-0.019844 0.165385 0
-0.0220109 0.226904 0
-0.00802063 0.226644 0
0.0206066 0.206691 0
0.0560543 0.177026 0
0.0905061 0.14763 0
0.122697 0.120186 0
0.151362 0.0963782 0
0.176119 0.0760885 0
0.196583 0.0591989 0
0.213078 0.0451166 0
0.225925 0.0332485 0
0.235394 0.023025 0
0.241754 0.0138768 0
0.245097 0.00526863 0
0.245514 -0.00333431 0
0.24284 -0.0124888 0
0.236909 -0.0227515 0
0.22732 -0.0347697 0
0.213671 -0.0491904 0
0.1954 -0.0668253 0
0.171946 -0.0884858 0
0.143392 -0.114582 0
0.10982 -0.145524 0
0.0723197 -0.180071 0
0.0319789 -0.216983 0
-0.00185506 -0.244084 0
-0.0198351 -0.249198 0
-0.0199028 -0.183959 0
0 0 0
0 0 0
0.0028231 0.163398 0
0.0325785 0.208818 0
0.078631 0.190957 0
0.130345 0.164512 0
0.181891 0.135298 0
0.227438 0.10913 0
0.266828 0.0864352 0
0.299899 0.0676398 0
0.327093 0.0523151 0
0.34885 0.0400323 0
0.365874 0.0301339 0
0.378867 0.0219627 0
0.388277 0.015069 0
0.394552 0.00900328 0
0.397841 0.00336604 0
0.398293 -0.00224212 0
0.395742 -0.00823755 0
0.390019 -0.0150366 0
0.380613 -0.0231082 0
0.367009 -0.0329214 0
0.348303 -0.0453123 0
0.323592 -0.0611172 0
0.292097 -0.0809467 0
0.253041 -0.105412 0
0.205946 -0.134841 0
0.150334 -0.169565 0
0.0928794 -0.202503 0
0.0402537 -0.226576 0
0.00508487 -0.179753 0
0 0 0
2.77334e-30 0 0
0.0741087 0.113296 0
0.158213 0.140242 0
0.241277 0.12241 0
0.312266 0.101375 0
0.371789 0.0805131 0
0.420459 0.0632006 0
0.459674 0.0490211 0
0.490833 0.0375588 0
0.515239 0.0284859 0
0.534193 0.0214746 0
0.548612 0.016001 0
0.559412 0.0115409 0
0.56709 0.00783651 0
0.572143 0.00462987 0
0.574742 0.00168457 0
0.575057 -0.00123585 0
0.572935 -0.00437718 0
0.568222 -0.00798525 0
0.56042 -0.0123112 0
0.54903 -0.0176063 0
0.533045 -0.0244935 0
0.51146 -0.0335959 0
0.48272 -0.0453374 0
0.44527 -0.060142 0
0.397088 -0.0789681 0
0.336153 -0.102774 0
0.261219 -0.127919 0
0.171041 -0.150763 0
0.0793811 -0.123919 0
2.77334e-30 0 0
0.25 0 0
0.353379 0.0478928 0
0.449238 0.0582706 0
0.531279 0.0493189 0
0.593205 0.0392232 0
0.639806 0.029728 0
0.675877 0.022578 0
0.703358 0.017143 0
0.724191 0.0127929 0
0.739795 0.00943579 0
0.751585 0.0069794 0
0.760313 0.00514675 0
0.766732 0.00366082 0
0.771206 0.00244201 0
0.774101 0.00141072 0
0.775546 0.000477961 0
0.775671 -0.000445232 0
0.774371 -0.00145042 0
0.771541 -0.00262915 0
0.766847 -0.00405102 0
0.759953 -0.00578564 0
0.750115 -0.00813425 0
0.736585 -0.0113981 0
0.71783 -0.0157049 0
0.692319 -0.0211825 0
0.657766 -0.0286289 0
0.61189 -0.0388423 0
0.548486 -0.0503973 0
0.461349 -0.0618685 0
0.359011 -0.0521161 0
0.25 0 0
1 0 0