<?xml version="1.0"?>
<VTKFile type="UnstructuredGrid">
  <UnstructuredGrid>
  <Piece NumberOfPoints="961"  NumberOfCells="225">
    <Points>
      <DataArray type="Float64" NumberOfComponents="3" format="ascii">
0 0 0
0.0333333 0 0
0.0666667 0 0
0.1 0 0
0.133333 0 0
0.166667 0 0
0.2 0 0
0.233333 0 0
0.266667 0 0
0.3 0 0
0.333333 0 0
0.366667 0 0
0.4 0 0
0.433333 0 0
0.466667 0 0
0.5 0 0
0.533333 0 0
0.566667 0 0
0.6 0 0
0.633333 0 0
0.666667 0 0
0.7 0 0
0.733333 0 0
0.766667 0 0
0.8 0 0
0.833333 0 0
0.866667 0 0
0.9 0 0
0.933333 0 0
0.966667 0 0
1 0 0
0 0.0333333 0
0.0333333 0.0333333 0
0.0666667 0.0333333 0
0.1 0.0333333 0
0.133333 0.0333333 0
0.166667 0.0333333 0
0.2 0.0333333 0
0.233333 0.0333333 0
0.266667 0.0333333 0
0.3 0.0333333 0
0.333333 0.0333333 0
0.366667 0.0333333 0
0.4 0.0333333 0
0.433333 0.0333333 0
0.466667 0.0333333 0
0.5 0.0333333 0
0.533333 0.0333333 0
0.566667 0.0333333 0
0.6 0.0333333 0
0.633333 0.0333333 0
0.666667 0.0333333 0
0.7 0.0333333 0
0.733333 0.0333333 0
0.766667 0.0333333 0
0.8 0.0333333 0
0.833333 0.0333333 0
0.866667 0.0333333 0
0.9 0.0333333 0
0.933333 0.0333333 0
0.966667 0.0333333 0
1 0.0333333 0
0 0.0666667 0
0.0333333 0.0666667 0
0.0666667 0.0666667 0
0.1 0.0666667 0
0.133333 0.0666667 0
0.166667 0.0666667 0
0.2 0.0666667 0
0.233333 0.0666667 0
0.266667 0.0666667 0
0.3 0.0666667 0
0.333333 0.0666667 0
0.366667 0.0666667 0
0.4 0.0666667 0
0.433333 0.0666667 0
0.466667 0.0666667 0
0.5 0.0666667 0
0.533333 0.0666667 0
0.566667 0.0666667 0
0.6 0.0666667 0
0.633333 0.0666667 0
0.666667 0.0666667 0
0.7 0.0666667 0
0.733333 0.0666667 0
0.766667 0.0666667 0
0.8 0.0666667 0
0.833333 0.0666667 0
0.866667 0.0666667 0
0.9 0.0666667 0
0.933333 0.0666667 0
0.966667 0.0666667 0
1 0.0666667 0
0 0.1 0
0.0333333 0.1 0
0.0666667 0.1 0
0.1 0.1 0
0.133333 0.1 0
0.166667 0.1 0
0.2 0.1 0
0.233333 0.1 0
0.266667 0.1 0
0.3 0.1 0
0.333333 0.1 0
0.366667 0.1 0
0.4 0.1 0
0.433333 0.1 0
0.466667 0.1 0
0.5 0.1 0
0.533333 0.1 0
0.566667 0.1 0
0.6 0.1 0
0.633333 0.1 0
0.666667 0.1 0
0.7 0.1 0
0.733333 0.1 0
0.766667 0.1 0
0.8 0.1 0
0.833333 0.1 0
0.866667 0.1 0
0.9 0.1 0
0.933333 0.1 0
0.966667 0.1 0
1 0.1 0
0 0.133333 0
0.0333333 0.133333 0
0.0666667 0.133333 0
0.1 0.133333 0
0.133333 0.133333 0
0.166667 0.133333 0
0.2 0.133333 0
0.233333 0.133333 0
0.266667 0.133333 0
0.3 0.133333 0
0.333333 0.133333 0
0.366667 0.133333 0
0.4 0.133333 0
0.433333 0.133333 0
0.466667 0.133333 0
0.5 0.133333 0
0.533333 0.133333 0
0.566667 0.133333 0
0.6 0.133333 0
0.633333 0.133333 0
0.666667 0.133333 0
0.7 0.133333 0
0.733333 0.133333 0
0.766667 0.133333 0
0.8 0.133333 0
0.833333 0.133333 0
0.866667 0.133333 0
0.9 0.133333 0
0.933333 0.133333 0
0.966667 0.133333 0
1 0.133333 0
0 0.166667 0
0.0333333 0.166667 0
0.0666667 0.166667 0
0.1 0.166667 0
0.133333 0.166667 0
0.166667 0.166667 0
0.2 0.166667 0
0.233333 0.166667 0
0.266667 0.166667 0
0.3 0.166667 0
0.333333 0.166667 0
0.366667 0.166667 0
0.4 0.166667 0
0.433333 0.166667 0
0.466667 0.166667 0
0.5 0.166667 0
0.533333 0.166667 0
0.566667 0.166667 0
0.6 0.166667 0
0.633333 0.166667 0
0.666667 0.166667 0
0.7 0.166667 0
0.733333 0.166667 0
0.766667 0.166667 0
0.8 0.166667 0
0.833333 0.166667 0
0.866667 0.166667 0
0.9 0.166667 0
0.933333 0.166667 0
0.966667 0.166667 0
1 0.166667 0
0 0.2 0
0.0333333 0.2 0
0.0666667 0.2 0
0.1 0.2 0
0.133333 0.2 0
0.166667 0.2 0
0.2 0.2 0
0.233333 0.2 0
0.266667 0.2 0
0.3 0.2 0
0.333333 0.2 0
0.366667 0.2 0
0.4 0.2 0
0.433333 0.2 0
0.466667 0.2 0
0.5 0.2 0
0.533333 0.2 0
0.566667 0.2 0
0.6 0.2 0
0.633333 0.2 0
0.666667 0.2 0
0.7 0.2 0
0.733333 0.2 0
0.766667 0.2 0
0.8 0.2 0
0.833333 0.2 0
0.866667 0.2 0
0.9 0.2 0
0.933333 0.2 0
0.966667 0.2 0
1 0.2 0
0 0.233333 0
0.0333333 0.233333 0
0.0666667 0.233333 0
0.1 0.233333 0
0.133333 0.233333 0
0.166667 0.233333 0
0.2 0.233333 0
0.233333 0.233333 0
0.266667 0.233333 0
0.3 0.233333 0
0.333333 0.233333 0
0.366667 0.233333 0
0.4 0.233333 0
0.433333 0.233333 0
0.466667 0.233333 0
0.5 0.233333 0
0.533333 0.233333 0
0.566667 0.233333 0
0.6 0.233333 0
0.633333 0.233333 0
0.666667 0.233333 0
0.7 0.233333 0
0.733333 0.233333 0
0.766667 0.233333 0
0.8 0.233333 0
0.833333 0.233333 0
0.866667 0.233333 0
0.9 0.233333 0
0.933333 0.233333 0
0.966667 0.233333 0
1 0.233333 0
0 0.266667 0
0.0333333 0.266667 0
0.0666667 0.266667 0
0.1 0.266667 0
0.133333 0.266667 0
0.166667 0.266667 0
0.2 0.266667 0
0.233333 0.266667 0
0.266667 0.266667 0
0.3 0.266667 0
0.333333 0.266667 0
0.366667 0.266667 0
0.4 0.266667 0
0.433333 0.266667 0
0.466667 0.266667 0
0.5 0.266667 0
0.533333 0.266667 0
0.566667 0.266667 0
0.6 0.266667 0
0.633333 0.266667 0
0.666667 0.266667 0
0.7 0.266667 0
0.733333 0.266667 0
0.766667 0.266667 0
0.8 0.266667 0
0.833333 0.266667 0
0.866667 0.266667 0
0.9 0.266667 0
0.933333 0.266667 0
0.966667 0.266667 0
1 0.266667 0
0 0.3 0
0.0333333 0.3 0
0.0666667 0.3 0
0.1 0.3 0
0.133333 0.3 0
0.166667 0.3 0
0.2 0.3 0
0.233333 0.3 0
0.266667 0.3 0
0.3 0.3 0
0.333333 0.3 0
0.366667 0.3 0
0.4 0.3 0
0.433333 0.3 0
0.466667 0.3 0
0.5 0.3 0
0.533333 0.3 0
0.566667 0.3 0
0.6 0.3 0
0.633333 0.3 0
0.666667 0.3 0
0.7 0.3 0
0.733333 0.3 0
0.766667 0.3 0
0.8 0.3 0
0.833333 0.3 0
0.866667 0.3 0
0.9 0.3 0
0.933333 0.3 0
0.966667 0.3 0
1 0.3 0
0 0.333333 0
0.0333333 0.333333 0
0.0666667 0.333333 0
0.1 0.333333 0
0.133333 0.333333 0
0.166667 0.333333 0
0.2 0.333333 0
0.233333 0.333333 0
0.266667 0.333333 0
0.3 0.333333 0
0.333333 0.333333 0
0.366667 0.333333 0
0.4 0.333333 0
0.433333 0.333333 0
0.466667 0.333333 0
0.5 0.333333 0
0.533333 0.333333 0
0.566667 0.333333 0
0.6 0.333333 0
0.633333 0.333333 0
0.666667 0.333333 0
0.7 0.333333 0
0.733333 0.333333 0
0.766667 0.333333 0
0.8 0.333333 0
0.833333 0.333333 0
0.866667 0.333333 0
0.9 0.333333 0
0.933333 0.333333 0
0.966667 0.333333 0
1 0.333333 0
0 0.366667 0
0.0333333 0.366667 0
0.0666667 0.366667 0
0.1 0.366667 0
0.133333 0.366667 0
0.166667 0.366667 0
0.2 0.366667 0
0.233333 0.366667 0
0.266667 0.366667 0
0.3 0.366667 0
0.333333 0.366667 0
0.366667 0.366667 0
0.4 0.366667 0
0.433333 0.366667 0
0.466667 0.366667 0
0.5 0.366667 0
0.533333 0.366667 0
0.566667 0.366667 0
0.6 0.366667 0
0.633333 0.366667 0
0.666667 0.366667 0
0.7 0.366667 0
0.733333 0.366667 0
0.766667 0.366667 0
0.8 0.366667 0
0.833333 0.366667 0
0.866667 0.366667 0
0.9 0.366667 0
0.933333 0.366667 0
0.966667 0.366667 0
1 0.366667 0
0 0.4 0
0.0333333 0.4 0
0.0666667 0.4 0
0.1 0.4 0
0.133333 0.4 0
0.166667 0.4 0
0.2 0.4 0
0.233333 0.4 0
0.266667 0.4 0
0.3 0.4 0
0.333333 0.4 0
0.366667 0.4 0
0.4 0.4 0
0.433333 0.4 0
0.466667 0.4 0
0.5 0.4 0
0.533333 0.4 0
0.566667 0.4 0
0.6 0.4 0
0.633333 0.4 0
0.666667 0.4 0
0.7 0.4 0
0.733333 0.4 0
0.766667 0.4 0
0.8 0.4 0
0.833333 0.4 0
0.866667 0.4 0
0.9 0.4 0
0.933333 0.4 0
0.966667 0.4 0
1 0.4 0
0 0.433333 0
0.0333333 0.433333 0
0.0666667 0.433333 0
0.1 0.433333 0
0.133333 0.433333 0
0.166667 0.433333 0
0.2 0.433333 0
0.233333 0.433333 0
0.266667 0.433333 0
0.3 0.433333 0
0.333333 0.433333 0
0.366667 0.433333 0
0.4 0.433333 0
0.433333 0.433333 0
0.466667 0.433333 0
0.5 0.433333 0
0.533333 0.433333 0
0.566667 0.433333 0
0.6 0.433333 0
0.633333 0.433333 0
0.666667 0.433333 0
0.7 0.433333 0
0.733333 0.433333 0
0.766667 0.433333 0
0.8 0.433333 0
0.833333 0.433333 0
0.866667 0.433333 0
0.9 0.433333 0
0.933333 0.433333 0
0.966667 0.433333 0
1 0.433333 0
0 0.466667 0
0.0333333 0.466667 0
0.0666667 0.466667 0
0.1 0.466667 0
0.133333 0.466667 0
0.166667 0.466667 0
0.2 0.466667 0
0.233333 0.466667 0
0.266667 0.466667 0
0.3 0.466667 0
0.333333 0.466667 0
0.366667 0.466667 0
0.4 0.466667 0
0.433333 0.466667 0
0.466667 0.466667 0
0.5 0.466667 0
0.533333 0.466667 0
0.566667 0.466667 0
0.6 0.466667 0
0.633333 0.466667 0
0.666667 0.466667 0
0.7 0.466667 0
0.733333 0.466667 0
0.766667 0.466667 0
0.8 0.466667 0
0.833333 0.466667 0
0.866667 0.466667 0
0.9 0.466667 0
0.933333 0.466667 0
0.966667 0.466667 0
1 0.466667 0
0 0.5 0
0.0333333 0.5 0
0.0666667 0.5 0
0.1 0.5 0
0.133333 0.5 0
0.166667 0.5 0
0.2 0.5 0
0.233333 0.5 0
0.266667 0.5 0
0.3 0.5 0
0.333333 0.5 0
0.366667 0.5 0
0.4 0.5 0
0.433333 0.5 0
0.466667 0.5 0
0.5 0.5 0
0.533333 0.5 0
0.566667 0.5 0
0.6 0.5 0
0.633333 0.5 0
0.666667 0.5 0
0.7 0.5 0
0.733333 0.5 0
0.766667 0.5 0
0.8 0.5 0
0.833333 0.5 0
0.866667 0.5 0
0.9 0.5 0
0.933333 0.5 0
0.966667 0.5 0
1 0.5 0
0 0.533333 0
0.0333333 0.533333 0
0.0666667 0.533333 0
0.1 0.533333 0
0.133333 0.533333 0
0.166667 0.533333 0
0.2 0.533333 0
0.233333 0.533333 0
0.266667 0.533333 0
0.3 0.533333 0
0.333333 0.533333 0
0.366667 0.533333 0
0.4 0.533333 0
0.433333 0.533333 0
0.466667 0.533333 0
0.5 0.533333 0
0.533333 0.533333 0
0.566667 0.533333 0
0.6 0.533333 0
0.633333 0.533333 0
0.666667 0.533333 0
0.7 0.533333 0
0.733333 0.533333 0
0.766667 0.533333 0
0.8 0.533333 0
0.833333 0.533333 0
0.866667 0.533333 0
0.9 0.533333 0
0.933333 0.533333 0
0.966667 0.533333 0
1 0.533333 0
0 0.566667 0
0.0333333 0.566667 0
0.0666667 0.566667 0
0.1 0.566667 0
0.133333 0.566667 0
0.166667 0.566667 0
0.2 0.566667 0
0.233333 0.566667 0
0.266667 0.566667 0
0.3 0.566667 0
0.333333 0.566667 0
0.366667 0.566667 0
0.4 0.566667 0
0.433333 0.566667 0
0.466667 0.566667 0
0.5 0.566667 0
0.533333 0.566667 0
0.566667 0.566667 0
0.6 0.566667 0
0.633333 0.566667 0
0.666667 0.566667 0
0.7 0.566667 0
0.733333 0.566667 0
0.766667 0.566667 0
0.8 0.566667 0
0.833333 0.566667 0
0.866667 0.566667 0
0.9 0.566667 0
0.933333 0.566667 0
0.966667 0.566667 0
1 0.566667 0
0 0.6 0
0.0333333 0.6 0
0.0666667 0.6 0
0.1 0.6 0
0.133333 0.6 0
0.166667 0.6 0
0.2 0.6 0
0.233333 0.6 0
0.266667 0.6 0
0.3 0.6 0
0.333333 0.6 0
0.366667 0.6 0
0.4 0.6 0
0.433333 0.6 0
0.466667 0.6 0
0.5 0.6 0
0.533333 0.6 0
0.566667 0.6 0
0.6 0.6 0
0.633333 0.6 0
0.666667 0.6 0
0.7 0.6 0
0.733333 0.6 0
0.766667 0.6 0
0.8 0.6 0
0.833333 0.6 0
0.866667 0.6 0
0.9 0.6 0
0.933333 0.6 0
0.966667 0.6 0
1 0.6 0
0 0.633333 0
0.0333333 0.633333 0
0.0666667 0.633333 0
0.1 0.633333 0
0.133333 0.633333 0
0.166667 0.633333 0
0.2 0.633333 0
0.233333 0.633333 0
0.266667 0.633333 0
[...]
    <PointData>
      <DataArray type="Float64" NumberOfComponents="3" Name="Velocity" format="ascii">
0 0 0
0 0 0
0 0 0
0 0 0
0 0 0
0 0 0
0 0 0
0 0 0
0 0 0
0 0 0
0 0 0
0 0 0
0 0 0
0 0 0
0 0 0
0 0 0
0 0 0
0 0 0
0 0 0
0 0 0
0 0 0
0 0 0
0 0 0
0 0 0
0 0 0
0 0 0
0 0 0
0 0 0
0 0 0
0 0 0
0 0 0
0 0 0
-0.000590367 0.000575339 0
-0.000477156 0.00038731 0
-0.000137317 0.000102639 0
-4.77972e-05 0.000388051 0
-0.00035434 0.000841324 0
-0.00120269 0.00106024 0
-0.00238862 0.00112684 0
-0.0037079 0.00112317 0
-0.00502915 0.00104828 0
-0.00622102 0.000901227 0
-0.00724843 0.000723339 0
-0.00807632 0.000555939 0
-0.00871366 0.000396774 0
-0.00916944 0.000243587 0
-0.0094425 8.96118e-05 0
-0.00953168 -7.1917e-05 0
-0.00941708 -0.00024474 0
-0.00907878 -0.000432597 0
-0.00848908 -0.000641016 0
-0.00762028 -0.000875524 0
-0.00648654 -0.00108525 0
-0.00510202 -0.00121935 0
-0.00361501 -0.00126927 0
-0.00217381 -0.00122651 0
-0.00100833 -0.00100927 0
-0.000348484 -0.000535764 0
-0.000128286 -0.000176702 0
-0.000281748 -0.000302801 0
-0.000381457 -0.00041144 0
0 0 0
0 0 0
-4.76307e-05 0.000101545 0
-3.72543e-05 -0.000416541 0
-3.32292e-05 -0.000718654 0
-9.99135e-05 3.0815e-05 0
-0.000612359 0.00116245 0
-0.00194562 0.00200684 0
-0.00381168 0.00252815 0
-0.00592254 0.00269053 0
-0.00807002 0.00258517 0
-0.0100459 0.00230323 0
-0.0117837 0.00192834 0
-0.0132166 0.00154412 0
-0.0143369 0.00116005 0
-0.015137 0.000785627 0
-0.0156146 0.00040525 0
-0.0157674 3.32097e-06 0
-0.0155631 -0.000437656 0
-0.0149688 -0.000935174 0
-0.0139539 -0.00147884 0
-0.0124874 -0.00205824 0
-0.0106135 -0.00257802 0
-0.00837601 -0.00294279 0
-0.00598612 -0.00302112 0
-0.00365484 -0.00268158 0
-0.00176542 -0.0019349 0
-0.000701128 -0.000791827 0
-0.000214163 0.000126206 0
-5.67237e-05 0.000197759 0
-4.62044e-05 -2.75241e-05 0
0 0 0
0 0 0
0.000359899 4.14019e-05 0
0.000268404 -0.000670279 0
-4.51167e-05 -0.00096502 0
-0.000351297 0.000327202 0
-0.00113087 0.00224455 0
-0.00286456 0.00382518 0
-0.0052225 0.00487261 0
-0.0078748 0.00519038 0
-0.0105805 0.00498783 0
-0.0130986 0.00447434 0
-0.0153318 0.00378063 0
-0.0171827 0.00303744 0
-0.0186261 0.00227434 0
-0.0196368 0.00152091 0
-0.0202067 0.000752919 0
-0.0203275 -5.38676e-05 0
-0.01997 -0.00092899 0
-0.0191049 -0.00190199 0
-0.0177146 -0.002938 0
-0.0157815 -0.00400213 0
-0.0133863 -0.00494473 0
-0.0106096 -0.00561611 0
-0.00768164 -0.00574119 0
-0.00483276 -0.00504485 0
-0.00250342 -0.00364767 0
-0.00113414 -0.00167021 0
-0.000388467 -5.63143e-05 0
7.00053e-05 0.000250146 0
0.000209941 1.39814e-05 0
0 0 0
0 0 0
-0.000636088 0.00185769 0
-0.000611482 0.00136737 0
-0.000530359 0.000862399 0
-0.000996895 0.00267612 0
-0.00226668 0.00536878 0
-0.00459529 0.00750062 0
-0.00757436 0.00882893 0
-0.0107955 0.00911101 0
-0.0140185 0.00863345 0
-0.017003 0.00768289 0
-0.019619 0.00644583 0
-0.0217366 0.0051088 0
-0.0233375 0.00372415 0
-0.0244032 0.00234422 0
-0.0249095 0.00093862 0
-0.0248321 -0.000523064 0
-0.0241699 -0.00206899 0
-0.0229217 -0.00372731 0
-0.0210913 -0.00544303 0
-0.0186826 -0.00716118 0
-0.0158106 -0.00865184 0
-0.0125903 -0.00968512 0
-0.00926986 -0.00991513 0
-0.00609723 -0.008996 0
-0.0034545 -0.00701837 0
-0.00172371 -0.00407292 0
-0.000782031 -0.0016893 0
-0.000506628 -0.00139717 0
-0.000408838 -0.00142469 0
0 0 0
0 0 0
-0.00117516 0.00283817 0
-0.00122858 0.00245054 0
-0.00120268 0.00197193 0
-0.00213985 0.00453715 0
-0.00403015 0.00817925 0
-0.00686366 0.0109313 0
-0.0102389 0.0125702 0
-0.0137544 0.0128729 0
-0.017194 0.0121773 0
-0.0203417 0.0108215 0
-0.0230649 0.00905709 0
-0.0252314 0.00713562 0
-0.0268153 0.00512527 0
-0.0277906 0.0030942 0
-0.0281241 0.00101945 0
-0.0277825 -0.00112195 0
-0.026792 -0.00334401 0
-0.0251792 -0.00566075 0
-0.0229837 -0.00800085 0
-0.0202452 -0.010293 0
-0.0170984 -0.0122286 0
-0.0136778 -0.0134992 0
-0.0102257 -0.0137249 0
-0.00698454 -0.0125257 0
-0.00422784 -0.00995462 0
-0.00222922 -0.00606435 0
-0.00106634 -0.00286681 0
-0.00081688 -0.00237385 0
-0.000716283 -0.00221006 0
0 0 0
0 0 0
0.000603129 0.000270594 0
-0.000134562 -0.000666642 0
-0.00177579 -0.000428096 0
-0.00388328 0.00336984 0
-0.00643166 0.00832003 0
-0.00939555 0.0120153 0
-0.0125878 0.0142695 0
-0.015821 0.0148965 0
-0.0189171 0.0142747 0
-0.0216974 0.0127829 0
-0.0240894 0.0107476 0
-0.0260204 0.0084953 0
-0.027404 0.00609348 0
-0.0281539 0.00360948 0
-0.0282519 0.00105252 0
-0.0276797 -0.00156819 0
-0.0264656 -0.00424042 0
-0.0246375 -0.00695195 0
-0.0222917 -0.00961836 0
-0.0195241 -0.0121552 0
-0.0164617 -0.0142045 0
-0.0132313 -0.0154079 0
-0.0100241 -0.0153524 0
-0.00703094 -0.0136248 0
-0.00443264 -0.010364 0
-0.00241002 -0.0057089 0
-0.000912882 -0.00168291 0
0.000108994 -0.000309553 0
0.000473867 -0.000208649 0
0 0 0
0 0 0
0.0027014 0.00171602 0
0.000970517 0.00208224 0
-0.00295716 0.00332609 0
-0.00684616 0.00767503 0
-0.0106452 0.0128657 0
-0.0143031 0.0166349 0
-0.0177817 0.0187785 0
-0.0210427 0.0190926 0
-0.0240155 0.018027 0
-0.0266293 0.0160319 0
-0.0288607 0.0134184 0
-0.0306865 0.0104976 0
-0.0319794 0.00735289 0
-0.0326124 0.00406729 0
-0.0325778 0.000683786 0
-0.031868 -0.0027547 0
-0.0305035 -0.00620401 0
-0.028505 -0.00962 0
-0.0259995 -0.0128876 0
-0.023114 -0.0158918 0
-0.019962 -0.0182793 0
-0.0166573 -0.0196968 0
-0.0132903 -0.0196856 0
-0.00995164 -0.0177868 0
-0.00681318 -0.0142297 0
-0.00404664 -0.00924365 0
-0.00147483 -0.00470633 0
0.00107946 -0.00249552 0
0.00208235 -0.00134786 0
0 0 0
0 0 0
0.00312227 0.0147355 0
0.000386599 0.0207636 0
-0.00545424 0.0228983 0
-0.0116474 0.0259535 0
-0.0178449 0.028891 0
-0.0236986 0.0306723 0
-0.0289815 0.0309488 0
-0.0334666 0.0293721 0
-0.0373172 0.0265358 0
-0.0406964 0.0230336 0
-0.0435473 0.0189707 0
-0.0458128 0.0144524 0
-0.0474175 0.00962761 0
-0.0482857 0.00464488 0
-0.0483871 -0.000440778 0
-0.0476913 -0.00557436 0
-0.0462188 -0.0106806 0
-0.0439899 -0.015684 0
-0.0410914 -0.0204007 0
-0.0376097 -0.0246466 0
-0.0336611 -0.0281532 0
-0.0293617 -0.0306518 0
-0.0246493 -0.0316125 0
-0.0194618 -0.0305052 0
-0.0141137 -0.0275347 0
-0.00891959 -0.0229057 0
-0.00390535 -0.0185058 0
0.000902973 -0.016223 0
0.00302992 -0.0115551 0
0 0 0
0 0 0
0.00252891 0.0280251 0
-0.00104863 0.0403303 0
-0.00826968 0.0439764 0
-0.0166713 0.0460243 0
-0.025376 0.0467042 0
-0.0335065 0.0462461 0
-0.0407578 0.0443704 0
-0.0468252 0.0407975 0
-0.0519897 0.0361291 0
-0.0565324 0.0309671 0
-0.0603464 0.025271 0
-0.063325 0.0190002 0
-0.0654558 0.0123506 0
-0.0667265 0.00551846 0
-0.0670826 -0.00142598 0
-0.0664695 -0.00841231 0
-0.0649056 -0.015338 0
-0.0624095 -0.0221004 0
-0.0590103 -0.0284561 0
-0.0547371 -0.0341617 0
-0.0497023 -0.0390186 0
-0.0440181 -0.0428284 0
-0.0375619 -0.0450274 0
-0.0302109 -0.0450517 0
-0.0223824 -0.0429528 0
-0.014494 -0.0387819 0
-0.00700548 -0.0343345 0
-0.000376731 -0.0314057 0
0.00281689 -0.0224696 0
0 0 0
0 0 0
0.00158445 0.0302808 0
-0.0024975 0.045735 0
-0.0104062 0.0522484 0
-0.0203019 0.0557064 0
-0.0305838 0.0566139 0
-0.0396512 0.0554752 0
-0.0476812 0.0526333 0
-0.0548509 0.0484309 0
-0.0612008 0.0431348 0
-0.0667709 0.0370119 0
-0.0714555 0.0301861 0
-0.0751484 0.0227813 0
-0.0778318 0.014955 0
-0.0794875 0.00686429 0
-0.0800672 -0.00137663 0
-0.0795223 -0.00965368 0
-0.0778584 -0.0178442 0
-0.0750809 -0.0258254 0
-0.071199 -0.0333521 0
-0.0662217 -0.0401789 0
-0.0602289 -0.0460682 0
-0.0533002 -0.0507824 0
-0.0454888 -0.0538245 0
-0.0368481 -0.0546977 0
-0.0276672 -0.0531575 0
-0.0182349 -0.0489594 0
-0.00957623 -0.0434454 0
-0.00271593 -0.0379574 0
0.000943593 -0.0257305 0
0 0 0
0 0 0
-4.49972e-06 0.026911 0
-0.00452882 0.0436151 0
-0.01248 0.0533327 0
-0.0227652 0.0592845 0
-0.0334931 0.0617399 0
-0.0427727 0.0609684 0
-0.051122 0.0579993 0
-0.0590589 0.0538615 0
-0.0663341 0.0484893 0
-0.0726984 0.0418172 0
-0.0780629 0.0342192 0
-0.0823388 0.0260698 0
-0.0854851 0.0174695 0
-0.0874605 0.00851912 0
-0.0882323 -0.000624558 0
-0.0877674 -0.00980457 0
-0.0860571 -0.0188885 0
-0.0830924 -0.0277441 0
-0.0788801 -0.0361454 0
-0.0734272 -0.0438664 0
-0.0667814 -0.0505895 0
-0.0589906 -0.055997 0
-0.0503139 -0.059659 0
-0.0410105 -0.0611455 0
-0.0312313 -0.059928 0
-0.0211271 -0.055478 0
-0.0120771 -0.0484656 0
-0.00546055 -0.0395607 0
-0.00139546 -0.024745 0
0 0 0
0 0 0
-0.00253132 0.0233243 0
-0.00771144 0.0406077 0
-0.0151076 0.0528481 0
-0.0242872 0.0610431 0
-0.0341288 0.0652022 0
-0.043511 0.0653348 0
-0.0524506 0.0627303 0
-0.0609642 0.0586783 0
-0.0687738 0.0531289 0
-0.0756012 0.0460322 0
-0.081357 0.0378739 0
-0.0859517 0.0291394 0
-0.0893551 0.0199233 0
-0.0915372 0.0103197 0
-0.0924693 0.000498406 0
-0.0921226 -0.0093711 0
-0.0904819 -0.0191605 0
-0.0875321 -0.0287416 0
-0.0832762 -0.0378928 0
-0.0777169 -0.0463923 0
-0.0709003 -0.0538701 0
-0.0628724 -0.0599559 0
-0.0539212 -0.0641862 0
-0.0443349 -0.0660975 0
-0.0343381 -0.0650434 0
-0.0241553 -0.0603777 0
-0.0149678 -0.0520222 0
-0.00795648 -0.0398985 0
-0.00300578 -0.02292 0
0 0 0
0 0 0
-0.00456012 0.0225351 0
-0.0105571 0.0411361 0
-0.0178268 0.0555242 0
-0.0262054 0.0654208 0
-0.0354356 0.070815 0
-0.04526 0.0716958 0
-0.0550583 0.0693336 0
-0.0642102 0.0649984 0
-0.0724987 0.0588598 0
-0.0797067 0.051087 0
-0.08576 0.0421833 0
-0.0905843 0.032652 0
-0.0941713 0.0226123 0
-0.0965126 0.012183 0
-0.0975865 0.00152223 0
-0.0973711 -0.00921208 0
-0.0958411 -0.0198997 0
-0.0929708 -0.0304203 0
-0.0887487 -0.0405491 0
-0.0831631 -0.0500612 0
-0.0762499 -0.0585382 0
-0.0680452 -0.0655617 0
-0.0587894 -0.0705713 0
-0.048723 -0.0730067 0
-0.0382282 -0.072141 0
-0.0276876 -0.0672474 0
-0.0179703 -0.0576723 0
-0.00994561 -0.0427622 0
-0.00386998 -0.0232829 0
0 0 0
0 0 0
-0.00465498 0.0275579 0
-0.0115773 0.0496231 0
-0.0201753 0.0660908 0
-0.0298572 0.076856 0
-0.0403582 0.0823923 0
-0.0514135 0.0831732 0
-0.0623365 0.0803163 0
-0.0724402 0.074939 0
-0.0814878 0.0674884 0
-0.0892422 0.0584113 0
-0.095694 0.0481807 0
-0.100834 0.0372694 0
-0.104663 0.0258327 0
-0.107182 0.0140259 0
-0.108392 0.00197686 0
-0.108296 -0.0101863 0
-0.106843 -0.0223455 0
-0.103979 -0.0343824 0
-0.0996593 -0.0460691 0
-0.093838 -0.0571775 0
-0.0864946 -0.067222 0
-0.0776089 -0.0757172 0
-0.0673973 -0.0819796 0
-0.0560765 -0.0853261 0
-0.0441427 -0.0848577 0
-0.0320921 -0.0796758 0
-0.0208071 -0.0689733 0
-0.0111698 -0.0519435 0
-0.00397068 -0.0288609 0
0 0 0
0 0 0
-0.00419684 0.0346065 0
-0.0121328 0.0610401 0
-0.0226259 0.0797637 0
-0.0344942 0.0912406 0
-0.0470751 0.0965702 0
-0.059706 0.0968518 0
-0.071837 0.093096 0
-0.0829182 0.0863134 0
-0.0927118 0.0772284 0
-0.10098 0.0665653 0
-0.107782 0.0547641 0
-0.113177 0.0422647 0
-0.117191 0.0292517 0
-0.119852 0.0159098 0
-0.121184 0.00232569 0
-0.121213 -0.0114141 0
-0.119862 -0.0252071 0
-0.117051 -0.0389509 0
-0.112682 -0.0524148 0
-0.106655 -0.0653682 0
-0.098874 -0.0772658 0
-0.0892469 -0.087562 0
-0.0779442 -0.0954044 0
-0.0651373 -0.0999405 0
-0.0514043 -0.100052 0
-0.037324 -0.0946193 0
-0.0239788 -0.0827442 0
-0.0124516 -0.0635275 0
-0.00402956 -0.0362019 0
0 0 0
0 0 0
-0.00456662 0.0398946 0
-0.0135837 0.070358 0
-0.025651 0.091759 0
-0.039368 0.104467 0
-0.0537649 0.109985 0
-0.0678718 0.109816 0
-0.0811117 0.10509 0
-0.0929079 0.0969351 0
-0.103141 0.0862935 0
-0.111693 0.0741091 0
-0.118648 0.0608317 0
-0.12409 0.0469111 0
-0.128118 0.0325363 0
-0.130832 0.0178964 0
-0.132262 0.00303209 0
-0.132437 -0.0120159 0
-0.131273 -0.027194 0
-0.128683 -0.0424485 0
-0.124493 -0.057548 0
-0.118526 -0.0722605 0
-0.110628 -0.0860139 0
-0.100643 -0.0982358 0
-0.0886297 -0.107839 0
-0.0746471 -0.113735 0
-0.0593361 -0.114581 0
-0.0433382 -0.109034 0
-0.0279863 -0.0958043 0
-0.0146134 -0.0735996 0
-0.00476828 -0.0418537 0
0 0 0
0 0 0
-0.00534314 0.0454353 0
-0.0156472 0.080155 0
-0.0293353 0.104419 0
-0.0448304 0.118488 0
-0.0608766 0.124164 0
-0.0762182 0.12325 0
-0.0902666 0.117201 0
-0.102434 0.107472 0
-0.112743 0.0951617 0
-0.121218 0.0813684 0
-0.127995 0.0665855 0
-0.13321 0.0513067 0
-0.137042 0.0356937 0
-0.13967 0.0199083 0
-0.141133 0.00393455 0
-0.141468 -0.0122435 0
-0.140586 -0.0286425 0
-0.138396 -0.0452792 0
-0.13465 -0.0619514 0
-0.129099 -0.0784571 0
-0.121496 -0.0941962 0
-0.111594 -0.108569 0
-0.0993146 -0.120269 0
-0.084579 -0.127988 0
-0.0680001 -0.130025 0
-0.0501908 -0.124677 0
-0.0327745 -0.110141 0
-0.0173749 -0.0846134 0
-0.00583554 -0.0479481 0
0 0 0
0 0 0
-0.00610521 0.0532417 0
-0.0180403 0.0930095 0
-0.0337635 0.120087 0
-0.051233 0.135259 0
-0.0688593 0.140637 0
-0.0850526 0.138334 0
-0.0994077 0.130327 0
-0.111519 0.118592 0
-0.121482 0.104311 0
-0.129391 0.088669 0
-0.135528 0.0722278 0
-0.140176 0.0555496 0
-0.143562 0.0387309 0
-0.145915 0.0218682 0
-0.147306 0.00487161 0
-0.147807 -0.0123488 0
-0.147311 -0.0298894 0
-0.145711 -0.0478466 0
-0.142713 -0.0661079 0
-0.138021 -0.0845608 0
-0.131221 -0.102543 0
-0.121899 -0.119392 0
-0.10986 -0.13368 0
-0.094906 -0.143979 0
-0.0774584 -0.147962 0
-0.0579375 -0.143304 0
-0.0382883 -0.127743 0
-0.020456 -0.0990227 0
-0.00688004 -0.0566165 0
0 0 0
0 0 0
-0.00695466 0.0626986 0
-0.0208283 0.108216 0
-0.0387794 0.138086 0
-0.0579667 0.153843 0
-0.0766545 0.158208 0
-0.093107 0.153903 0
-0.10711 0.143427 0
-0.11845 0.129278 0
-0.127361 0.11276 0
-0.134078 0.0951758 0
-0.139043 0.0771093 0
-0.142696 0.0591436 0
-0.145312 0.041293 0
-0.147163 0.0235721 0
-0.148358 0.00579925 0
-0.149006 -0.012207 0
-0.148991 -0.0306404 0
-0.148196 -0.0496945 0
-0.146289 -0.0693749 0
-0.142941 -0.0896877 0
-0.137572 -0.109969 0
-0.129605 -0.129557 0
-0.118629 -0.146885 0
-0.104232 -0.160387 0
-0.0866153 -0.167075 0
-0.0659792 -0.163956 0
-0.0443974 -0.148012 0
-0.0239432 -0.116225 0
-0.00801224 -0.0673141 0
0 0 0
0 0 0
-0.00799332 0.0731907 0
-0.0240765 0.125069 0
-0.044227 0.15774 0
-0.0644225 0.173305 0
-0.0832042 0.175682 0
-0.0991136 0.168788 0
-0.111949 0.155455 0
-0.121508 0.138514 0
-0.128377 0.119526 0
-0.133143 0.100054 0
-0.136333 0.0805812 0
-0.13848 0.0615923 0
-0.139924 0.0430247 0
-0.14101 0.0248157 0
-0.141866 0.00667348 0
-0.142619 -0.0116935 0
-0.143169 -0.0306015 0
-0.143413 -0.0503666 0
-0.142982 -0.0711102 0
-0.141507 -0.0929537 0
-0.138322 -0.115391 0
-0.132761 -0.137916 0
-0.123986 -0.158695 0
-0.111161 -0.175893 0
-0.0943752 -0.186043 0
-0.0737169 -0.185676 0
-0.0509713 -0.170349 0
-0.0279231 -0.135617 0
-0.00934261 -0.0794957 0
0 0 0
0 0 0
-0.00939981 0.0854177 0
-0.0273438 0.143725 0
-0.0489313 0.178375 0
-0.0692615 0.192821 0
-0.0870489 0.192264 0
-0.101008 0.181905 0
-0.111201 0.165082 0
-0.11769 0.145132 0
-0.121429 0.123743 0
-0.123368 0.102604 0
-0.124099 0.0820586 0
-0.124212 0.0624498 0
-0.1241 0.0436141 0
-0.124154 0.0253878 0
-0.124509 0.00736729 0
-0.125299 -0.0108507 0
-0.126454 -0.0297085 0
-0.127903 -0.0496485 0
-0.129272 -0.0709307 0
-0.130186 -0.0938151 0
-0.129944 -0.118018 0
-0.127846 -0.143254 0
-0.122638 -0.167603 0
-0.113068 -0.189144 0
-0.0987942 -0.203765 0
-0.0794763 -0.207356 0
-0.0566595 -0.193857 0
-0.0318891 -0.157208 0
-0.0110432 -0.0937934 0
0 0 0
0 0 0
-0.0113528 0.10008 0
-0.0301892 0.164339 0
-0.0517172 0.199321 0
-0.0711451 0.211567 0
-0.0867289 0.207156 0
-0.0967248 0.192165 0
-0.102142 0.170975 0
-0.103992 0.147964 0
-0.103411 0.124545 0
-0.101538 0.102129 0
-0.0990393 0.080957 0
-0.0965804 0.0612699 0
-0.0945384 0.0427494 0
-0.0932905 0.0250772 0
-0.092967 0.00775366 0
-0.0936985 -0.00972114 0
-0.0954549 -0.0278974 0
-0.0982058 -0.0473255 0
-0.101639 -0.068453 0
-0.105442 -0.091728 0
-0.10891 -0.117059 0
-0.111339 -0.144356 0
-0.11129 -0.172104 0
-0.107325 -0.198788 0
-0.0979281 -0.21914 0
-0.0815829 -0.227889 0
-0.0601111 -0.217642 0
-0.0353343 -0.181006 0
-0.0132861 -0.110839 0
0 0 0
0 0 0
-0.0126072 0.115668 0
-0.0319179 0.185177 0
-0.0522589 0.218792 0
-0.067957 0.226775 0
-0.0779429 0.216809 0
-0.081147 0.196575 0
-0.0795426 0.171134 0
-0.0751029 0.145546 0
-0.0690347 0.12079 0
-0.062545 0.097841 0
-0.0562893 0.0767943 0
-0.0509232 0.0577435 0
-0.0467423 0.0402142 0
-0.0440421 0.0237319 0
-0.0429299 0.00772578 0
-0.0435131 -0.00837489 0
-0.0458067 -0.0251954 0
-0.0498262 -0.0433611 0
-0.0553852 -0.0634985 0
-0.0622974 -0.0862341 0
-0.0699593 -0.111699 0
-0.0777675 -0.140023 0
-0.0843001 -0.170312 0
-0.0881355 -0.201673 0
-0.0866319 -0.228189 0
-0.0771477 -0.243946 0
-0.0604445 -0.2394 0
-0.0372838 -0.205008 0
-0.0147681 -0.129099 0
0 0 0
0 0 0
-0.011918 0.130675 0
-0.0318355 0.204507 0
-0.0502305 0.235004 0
-0.0575812 0.235675 0
-0.0563893 0.21767 0
-0.0491566 0.192137 0
-0.0381694 0.163558 0
-0.0257138 0.136416 0
-0.0130107 0.111339 0
-0.00128115 0.0889552 0
0.00901569 0.0690884 0
0.0174204 0.0515614 0
0.0237869 0.0357925 0
0.0279688 0.0211996 0
0.0299119 0.00717683 0
0.0295621 -0.00688196 0
0.0268561 -0.0216296 0
0.0217303 -0.0377188 0
0.0141865 -0.0558879 0
0.00422607 -0.0768751 0
-0.00782888 -0.101118 0
-0.0216563 -0.129055 0
-0.036024 -0.160343 0
-0.0496999 -0.194642 0
-0.0597604 -0.226933 0
-0.0632818 -0.252197 0
-0.0567779 -0.256826 0
-0.0367623 -0.227212 0
-0.0141861 -0.147041 0
0 0 0
0 0 0
-0.0109861 0.147254 0
-0.0261051 0.220258 0
-0.0352273 0.241146 0
-0.0282235 0.232055 0
-0.0114416 0.206195 0
0.00877055 0.176776 0
0.0303752 0.146995 0
0.0513346 0.120048 0
0.0706502 0.0962054 0
0.0873233 0.0757352 0
0.101235 0.0581723 0
0.112264 0.0430514 0
0.120463 0.029749 0
0.12588 0.0176416 0
0.128533 0.00613814 0
0.12844 -0.00535241 0
0.125494 -0.017455 0
0.11959 -0.0307946 0
0.110526 -0.0461293 0
0.0981028 -0.0642174 0
0.0822401 -0.0857876 0
0.0628579 -0.111569 0
0.0407485 -0.141703 0
0.0167044 -0.176332 0
-0.00688025 -0.212211 0
-0.0276115 -0.246094 0
-0.0376138 -0.262085 0
-0.0290116 -0.244286 0
-0.0128065 -0.165867 0
0 0 0
0 0 0
-0.0115126 0.16756 0
-0.0108898 0.230361 0
0.00315538 0.230408 0
0.03191 0.209701 0
0.0675269 0.178838 0
0.102159 0.148415 0
0.134489 0.12019 0
0.163201 0.0959189 0
0.187937 0.0754036 0
0.208338 0.0584451 0
0.224726 0.0443791 0
0.237423 0.0325411 0
0.246699 0.0223485 0
0.252829 0.0132189 0
0.255908 0.00464104 0
0.256033 -0.00389631 0
0.253068 -0.0129269 0
0.246878 -0.0229844 0
0.237083 -0.0347307 0
0.223307 -0.0488274 0
0.205007 -0.0661766 0
0.181639 -0.0876802 0
0.153228 -0.113894 0
0.119801 -0.145375 0
0.0824416 -0.180861 0
0.0422365 -0.219088 0
0.00854493 -0.247339 0
-0.00927322 -0.252899 0
-0.0118956 -0.186781 0
0 0 0
0 0 0
0.0113771 0.165447 0
0.0443806 0.212031 0
0.0910232 0.1944 0
0.143317 0.167203 0
0.195334 0.136859 0
0.241144 0.109785 0
0.280612 0.0864356 0
0.313602 0.0672678 0
0.340616 0.0517763 0
0.362158 0.0394564 0
0.378948 0.0295923 0
0.39171 0.0214687 0
0.400888 0.0146231 0
0.406929 0.00859286 0
0.409988 0.00299386 0
0.410224 -0.00255813 0
0.407487 -0.00846069 0
0.40163 -0.0151114 0
0.392168 -0.0229947 0
0.378616 -0.032595 0
0.360064 -0.0448096 0
0.335606 -0.0605361 0
0.304384 -0.0805072 0
0.265539 -0.105456 0
0.218496 -0.135719 0
0.162677 -0.171635 0
0.104808 -0.205648 0
0.0516186 -0.230204 0
0.0132887 -0.182566 0
0 0 0
2.77334e-30 0 0
0.0825574 0.114775 0
0.170277 0.14248 0
0.254482 0.124733 0
0.326496 0.103151 0
0.386798 0.081517 0
0.435863 0.0636127 0
0.475183 0.0490236 0
0.506251 0.0373348 0
0.530453 0.028167 0
0.549175 0.0211406 0
0.563357 0.0156958 0
0.573941 0.0112726 0
0.58142 0.0076044 0
0.58629 0.00442451 0
0.588724 0.00150493 0
0.588893 -0.00138233 0
0.586659 -0.00447194 0
0.581885 -0.00799859 0
0.574092 -0.012224 0
0.562804 -0.01741 0
0.547006 -0.0242114 0
0.525681 -0.0332831 0
0.497185 -0.0451297 0
0.459871 -0.0602555 0
0.411573 -0.0796225 0
0.350123 -0.104192 0
0.274287 -0.130068 0
0.18283 -0.153351 0
0.0874887 -0.126007 0
2.77334e-30 0 0
0.25 0 0
0.359581 0.0486048 0
0.458312 0.0592792 0
0.541488 0.0503011 0
0.604405 0.0399485 0
0.651744 0.0301259 0
0.688189 0.0227384 0
0.715785 0.0171473 0
0.736575 0.0127142 0
0.752047 0.00932504 0
0.763689 0.00686582 0
0.77227 0.0050461 0
0.778557 0.00357543 0
0.782917 0.00237066 0
0.785714 0.00134863 0
0.787074 0.00042379 0
0.787124 -0.000489444 0
0.785768 -0.00147894 0
0.782916 -0.00263258 0
0.77824 -0.004024 0
0.771417 -0.00572684 0
0.761696 -0.00805155 0
0.748325 -0.0113086 0