<?xml version="1.0"?>
<VTKFile type="UnstructuredGrid">
  <UnstructuredGrid>
  <Piece NumberOfPoints="961"  NumberOfCells="225">
    <Points>
      <DataArray type="Float64" NumberOfComponents="3" format="ascii">
0 0 0
0.0333333 0 0
0.0666667 0 0
0.1 0 0
0.133333 0 0
0.166667 0 0
0.2 0 0
0.233333 0 0
0.266667 0 0
0.3 0 0
0.333333 0 0
0.366667 0 0
0.4 0 0
0.433333 0 0
0.466667 0 0
0.5 0 0
0.533333 0 0
0.566667 0 0
0.6 0 0
0.633333 0 0
0.666667 0 0
0.7 0 0
0.733333 0 0
0.766667 0 0
0.8 0 0
0.833333 0 0
0.866667 0 0
0.9 0 0
0.933333 0 0
0.966667 0 0
1 0 0
0 0.0333333 0
0.0333333 0.0333333 0
0.0666667 0.0333333 0
0.1 0.0333333 0
0.133333 0.0333333 0
0.166667 0.0333333 0
0.2 0.0333333 0
0.233333 0.0333333 0
0.266667 0.0333333 0
0.3 0.0333333 0
0.333333 0.0333333 0
0.366667 0.0333333 0
0.4 0.0333333 0
0.433333 0.0333333 0
0.466667 0.0333333 0
0.5 0.0333333 0
0.533333 0.0333333 0
0.566667 0.0333333 0
0.6 0.0333333 0
0.633333 0.0333333 0
0.666667 0.0333333 0
0.7 0.0333333 0
0.733333 0.0333333 0
0.766667 0.0333333 0
0.8 0.0333333 0
0.833333 0.0333333 0
0.866667 0.0333333 0
0.9 0.0333333 0
0.933333 0.0333333 0
0.966667 0.0333333 0
1 0.0333333 0
0 0.0666667 0
0.0333333 0.0666667 0
0.0666667 0.0666667 0
0.1 0.0666667 0
0.133333 0.0666667 0
0.166667 0.0666667 0
0.2 0.0666667 0
0.233333 0.0666667 0
0.266667 0.0666667 0
0.3 0.0666667 0
0.333333 0.0666667 0
0.366667 0.0666667 0
0.4 0.0666667 0
0.433333 0.0666667 0
0.466667 0.0666667 0
0.5 0.0666667 0
0.533333 0.0666667 0
0.566667 0.0666667 0
0.6 0.0666667 0
0.633333 0.0666667 0
0.666667 0.0666667 0
0.7 0.0666667 0
0.733333 0.0666667 0
0.766667 0.0666667 0
0.8 0.0666667 0
0.833333 0.0666667 0
0.866667 0.0666667 0
0.9 0.0666667 0
0.933333 0.0666667 0
0.966667 0.0666667 0
1 0.0666667 0
0 0.1 0
0.0333333 0.1 0
0.0666667 0.1 0
0.1 0.1 0
0.133333 0.1 0
0.166667 0.1 0
0.2 0.1 0
0.233333 0.1 0
0.266667 0.1 0
0.3 0.1 0
0.333333 0.1 0
0.366667 0.1 0
0.4 0.1 0
0.433333 0.1 0
0.466667 0.1 0
0.5 0.1 0
0.533333 0.1 0
0.566667 0.1 0
0.6 0.1 0
0.633333 0.1 0
0.666667 0.1 0
0.7 0.1 0
0.733333 0.1 0
0.766667 0.1 0
0.8 0.1 0
0.833333 0.1 0
0.866667 0.1 0
0.9 0.1 0
0.933333 0.1 0
0.966667 0.1 0
1 0.1 0
0 0.133333 0
0.0333333 0.133333 0
0.0666667 0.133333 0
0.1 0.133333 0
0.133333 0.133333 0
0.166667 0.133333 0
0.2 0.133333 0
0.233333 0.133333 0
0.266667 0.133333 0
0.3 0.133333 0
0.333333 0.133333 0
0.366667 0.133333 0
0.4 0.133333 0
0.433333 0.133333 0
0.466667 0.133333 0
0.5 0.133333 0
0.533333 0.133333 0
0.566667 0.133333 0
0.6 0.133333 0
0.633333 0.133333 0
0.666667 0.133333 0
0.7 0.133333 0
0.733333 0.133333 0
0.766667 0.133333 0
0.8 0.133333 0
0.833333 0.133333 0
0.866667 0.133333 0
0.9 0.133333 0
0.933333 0.133333 0
0.966667 0.133333 0
1 0.133333 0
0 0.166667 0
0.0333333 0.166667 0
0.0666667 0.166667 0
0.1 0.166667 0
0.133333 0.166667 0
0.166667 0.166667 0
0.2 0.166667 0
0.233333 0.166667 0
0.266667 0.166667 0
0.3 0.166667 0
0.333333 0.166667 0
0.366667 0.166667 0
0.4 0.166667 0
0.433333 0.166667 0
0.466667 0.166667 0
0.5 0.166667 0
0.533333 0.166667 0
0.566667 0.166667 0
0.6 0.166667 0
0.633333 0.166667 0
0.666667 0.166667 0
0.7 0.166667 0
0.733333 0.166667 0
0.766667 0.166667 0
0.8 0.166667 0
0.833333 0.166667 0
0.866667 0.166667 0
0.9 0.166667 0
0.933333 0.166667 0
0.966667 0.166667 0
1 0.166667 0
0 0.2 0
0.0333333 0.2 0
0.0666667 0.2 0
0.1 0.2 0
0.133333 0.2 0
0.166667 0.2 0
0.2 0.2 0
0.233333 0.2 0
0.266667 0.2 0
0.3 0.2 0
0.333333 0.2 0
0.366667 0.2 0
0.4 0.2 0
0.433333 0.2 0
0.466667 0.2 0
0.5 0.2 0
0.533333 0.2 0
0.566667 0.2 0
0.6 0.2 0
0.633333 0.2 0
0.666667 0.2 0
0.7 0.2 0
0.733333 0.2 0
0.766667 0.2 0
0.8 0.2 0
0.833333 0.2 0
0.866667 0.2 0
0.9 0.2 0
0.933333 0.2 0
0.966667 0.2 0
1 0.2 0
0 0.233333 0
0.0333333 0.233333 0
0.0666667 0.233333 0
0.1 0.233333 0
0.133333 0.233333 0
0.166667 0.233333 0
0.2 0.233333 0
0.233333 0.233333 0
0.266667 0.233333 0
0.3 0.233333 0
0.333333 0.233333 0
0.366667 0.233333 0
0.4 0.233333 0
0.433333 0.233333 0
0.466667 0.233333 0
0.5 0.233333 0
0.533333 0.233333 0
0.566667 0.233333 0
0.6 0.233333 0
0.633333 0.233333 0
0.666667 0.233333 0
0.7 0.233333 0
0.733333 0.233333 0
0.766667 0.233333 0
0.8 0.233333 0
0.833333 0.233333 0
0.866667 0.233333 0
0.9 0.233333 0
0.933333 0.233333 0
0.966667 0.233333 0
1 0.233333 0
0 0.266667 0
0.0333333 0.266667 0
0.0666667 0.266667 0
0.1 0.266667 0
0.133333 0.266667 0
0.166667 0.266667 0
0.2 0.266667 0
0.233333 0.266667 0
0.266667 0.266667 0
0.3 0.266667 0
0.333333 0.266667 0
0.366667 0.266667 0
0.4 0.266667 0
0.433333 0.266667 0
0.466667 0.266667 0
0.5 0.266667 0
0.533333 0.266667 0
0.566667 0.266667 0
0.6 0.266667 0
0.633333 0.266667 0
0.666667 0.266667 0
0.7 0.266667 0
0.733333 0.266667 0
0.766667 0.266667 0
0.8 0.266667 0
0.833333 0.266667 0
0.866667 0.266667 0
0.9 0.266667 0
0.933333 0.266667 0
0.966667 0.266667 0
1 0.266667 0
0 0.3 0
0.0333333 0.3 0
0.0666667 0.3 0
0.1 0.3 0
0.133333 0.3 0
0.166667 0.3 0
0.2 0.3 0
0.233333 0.3 0
0.266667 0.3 0
0.3 0.3 0
0.333333 0.3 0
0.366667 0.3 0
0.4 0.3 0
0.433333 0.3 0
0.466667 0.3 0
0.5 0.3 0
0.533333 0.3 0
0.566667 0.3 0
0.6 0.3 0
0.633333 0.3 0
0.666667 0.3 0
0.7 0.3 0
0.733333 0.3 0
0.766667 0.3 0
0.8 0.3 0
0.833333 0.3 0
0.866667 0.3 0
0.9 0.3 0
0.933333 0.3 0
0.966667 0.3 0
1 0.3 0
0 0.333333 0
0.0333333 0.333333 0
0.0666667 0.333333 0
0.1 0.333333 0
0.133333 0.333333 0
0.166667 0.333333 0
0.2 0.333333 0
0.233333 0.333333 0
0.266667 0.333333 0
0.3 0.333333 0
0.333333 0.333333 0
0.366667 0.333333 0
0.4 0.333333 0
0.433333 0.333333 0
0.466667 0.333333 0
0.5 0.333333 0
0.533333 0.333333 0
0.566667 0.333333 0
0.6 0.333333 0
0.633333 0.333333 0
0.666667 0.333333 0
0.7 0.333333 0
0.733333 0.333333 0
0.766667 0.333333 0
0.8 0.333333 0
0.833333 0.333333 0
0.866667 0.333333 0
0.9 0.333333 0
0.933333 0.333333 0
0.966667 0.333333 0
1 0.333333 0
0 0.366667 0
0.0333333 0.366667 0
0.0666667 0.366667 0
0.1 0.366667 0
0.133333 0.366667 0
0.166667 0.366667 0
0.2 0.366667 0
0.233333 0.366667 0
0.266667 0.366667 0
0.3 0.366667 0
0.333333 0.366667 0
0.366667 0.366667 0
0.4 0.366667 0
0.433333 0.366667 0
0.466667 0.366667 0
0.5 0.366667 0
0.533333 0.366667 0
0.566667 0.366667 0
0.6 0.366667 0
0.633333 0.366667 0
0.666667 0.366667 0
0.7 0.366667 0
0.733333 0.366667 0
0.766667 0.366667 0
0.8 0.366667 0
0.833333 0.366667 0
0.866667 0.366667 0
0.9 0.366667 0
0.933333 0.366667 0
0.966667 0.366667 0
1 0.366667 0
0 0.4 0
0.0333333 0.4 0
0.0666667 0.4 0
0.1 0.4 0
0.133333 0.4 0
0.166667 0.4 0
0.2 0.4 0
0.233333 0.4 0
0.266667 0.4 0
0.3 0.4 0
0.333333 0.4 0
0.366667 0.4 0
0.4 0.4 0
0.433333 0.4 0
0.466667 0.4 0
0.5 0.4 0
0.533333 0.4 0
0.566667 0.4 0
0.6 0.4 0
0.633333 0.4 0
0.666667 0.4 0
0.7 0.4 0
0.733333 0.4 0
0.766667 0.4 0
0.8 0.4 0
0.833333 0.4 0
0.866667 0.4 0
0.9 0.4 0
0.933333 0.4 0
0.966667 0.4 0
1 0.4 0
0 0.433333 0
0.0333333 0.433333 0
0.0666667 0.433333 0
0.1 0.433333 0
0.133333 0.433333 0
0.166667 0.433333 0
0.2 0.433333 0
0.233333 0.433333 0
0.266667 0.433333 0
0.3 0.433333 0
0.333333 0.433333 0
0.366667 0.433333 0
0.4 0.433333 0
0.433333 0.433333 0
0.466667 0.433333 0
0.5 0.433333 0
0.533333 0.433333 0
0.566667 0.433333 0
0.6 0.433333 0
0.633333 0.433333 0
0.666667 0.433333 0
0.7 0.433333 0
0.733333 0.433333 0
0.766667 0.433333 0
0.8 0.433333 0
0.833333 0.433333 0
0.866667 0.433333 0
0.9 0.433333 0
0.933333 0.433333 0
0.966667 0.433333 0
1 0.433333 0
0 0.466667 0
0.0333333 0.466667 0
0.0666667 0.466667 0
0.1 0.466667 0
0.133333 0.466667 0
0.166667 0.466667 0
0.2 0.466667 0
0.233333 0.466667 0
0.266667 0.466667 0
0.3 0.466667 0
0.333333 0.466667 0
0.366667 0.466667 0
0.4 0.466667 0
0.433333 0.466667 0
0.466667 0.466667 0
0.5 0.466667 0
0.533333 0.466667 0
0.566667 0.466667 0
0.6 0.466667 0
0.633333 0.466667 0
0.666667 0.466667 0
0.7 0.466667 0
0.733333 0.466667 0
0.766667 0.466667 0
0.8 0.466667 0
0.833333 0.466667 0
0.866667 0.466667 0
0.9 0.466667 0
0.933333 0.466667 0
0.966667 0.466667 0
1 0.466667 0
0 0.5 0
0.0333333 0.5 0
0.0666667 0.5 0
0.1 0.5 0
0.133333 0.5 0
0.166667 0.5 0
0.2 0.5 0
0.233333 0.5 0
0.266667 0.5 0
0.3 0.5 0
0.333333 0.5 0
0.366667 0.5 0
0.4 0.5 0
0.433333 0.5 0
0.466667 0.5 0
0.5 0.5 0
0.533333 0.5 0
0.566667 0.5 0
0.6 0.5 0
0.633333 0.5 0
0.666667 0.5 0
0.7 0.5 0
0.733333 0.5 0
0.766667 0.5 0
0.8 0.5 0
0.833333 0.5 0
0.866667 0.5 0
0.9 0.5 0
0.933333 0.5 0
0.966667 0.5 0
1 0.5 0
0 0.533333 0
0.0333333 0.533333 0
0.0666667 0.533333 0
0.1 0.533333 0
0.133333 0.533333 0
0.166667 0.533333 0
0.2 0.533333 0
0.233333 0.533333 0
0.266667 0.533333 0
0.3 0.533333 0
0.333333 0.533333 0
0.366667 0.533333 0
0.4 0.533333 0
0.433333 0.533333 0
0.466667 0.533333 0
0.5 0.533333 0
0.533333 0.533333 0
0.566667 0.533333 0
0.6 0.533333 0
0.633333 0.533333 0
0.666667 0.533333 0
0.7 0.533333 0
0.733333 0.533333 0
0.766667 0.533333 0
0.8 0.533333 0
0.833333 0.533333 0
0.866667 0.533333 0
0.9 0.533333 0
0.933333 0.533333 0
0.966667 0.533333 0
1 0.533333 0
0 0.566667 0
0.0333333 0.566667 0
0.0666667 0.566667 0
0.1 0.566667 0
0.133333 0.566667 0
0.166667 0.566667 0
0.2 0.566667 0
0.233333 0.566667 0
0.266667 0.566667 0
0.3 0.566667 0
0.333333 0.566667 0
0.366667 0.566667 0
0.4 0.566667 0
0.433333 0.566667 0
0.466667 0.566667 0
0.5 0.566667 0
0.533333 0.566667 0
0.566667 0.566667 0
0.6 0.566667 0
0.633333 0.566667 0
0.666667 0.566667 0
0.7 0.566667 0
0.733333 0.566667 0
0.766667 0.566667 0
0.8 0.566667 0
0.833333 0.566667 0
0.866667 0.566667 0
0.9 0.566667 0
0.933333 0.566667 0
0.966667 0.566667 0
1 0.566667 0
0 0.6 0
0.0333333 0.6 0
0.0666667 0.6 0
0.1 0.6 0
0.133333 0.6 0
0.166667 0.6 0
0.2 0.6 0
0.233333 0.6 0
0.266667 0.6 0
0.3 0.6 0
0.333333 0.6 0
0.366667 0.6 0
0.4 0.6 0
0.433333 0.6 0
0.466667 0.6 0
0.5 0.6 0
0.533333 0.6 0
0.566667 0.6 0
0.6 0.6 0
0.633333 0.6 0
0.666667 0.6 0
0.7 0.6 0
0.733333 0.6 0
0.766667 0.6 0
0.8 0.6 0
0.833333 0.6 0
0.866667 0.6 0
0.9 0.6 0
0.933333 0.6 0
0.966667 0.6 0
1 0.6 0
0 0.633333 0
0.0333333 0.633333 0
0.0666667 0.633333 0
0.1 0.633333 0
0.133333 0.633333 0
0.166667 0.633333 0
0.2 0.633333 0
0.233333 0.633333 0
0.266667 0.633333 0
[...]
    <PointData>
      <DataArray type="Float64" NumberOfComponents="3" Name="Velocity" format="ascii">
0 0 0
0 0 0
0 0 0
0 0 0
0 0 0
0 0 0
0 0 0
0 0 0
0 0 0
0 0 0
0 0 0
0 0 0
0 0 0
0 0 0
0 0 0
0 0 0
0 0 0
0 0 0
0 0 0
0 0 0
0 0 0
0 0 0
0 0 0
0 0 0
0 0 0
0 0 0
0 0 0
0 0 0
0 0 0
0 0 0
0 0 0
0 0 0
0.00257689 -0.000153748 0
0.00336026 5.30501e-06 0
0.00308612 0.000271924 0
0.00249051 0.000440872 0
0.00170932 0.000533436 0
0.000878452 0.000570901 0
2.72727e-05 0.000569591 0
-0.000814852 0.000545829 0
-0.00160494 0.000500712 0
-0.00229999 0.000435334 0
-0.00289058 0.000356904 0
-0.00336726 0.000272627 0
-0.00371494 0.00018266 0
-0.00391854 8.71568e-05 0
-0.00397845 -1.18264e-05 0
-0.00389505 -0.000112234 0
-0.00366553 -0.00021027 0
-0.00328708 -0.000302138 0
-0.0027759 -0.000387618 0
-0.00214821 -0.000466487 0
-0.00141547 -0.000530794 0
-0.000589121 -0.000572587 0
0.000281563 -0.000587004 0
0.00114733 -0.000569183 0
0.00197022 -0.00051178 0
0.00271225 -0.000407452 0
0.00325024 -0.000227294 0
0.00346099 5.75998e-05 0
0.0026193 0.00021183 0
0 0 0
0 0 0
0.00317659 -7.80639e-05 0
0.0037753 0.000397448 0
0.00291137 0.00104147 0
0.00170007 0.00146893 0
0.000261867 0.00172002 0
-0.00128277 0.00183493 0
-0.00285516 0.00183706 0
-0.00437663 0.00174981 0
-0.00579643 0.00159494 0
-0.00706381 0.0013942 0
-0.00814681 0.00115593 0
-0.00901347 0.000888444 0
-0.00964727 0.000598805 0
-0.0100317 0.000294074 0
-0.0101565 -1.93165e-05 0
-0.0100116 -0.000334931 0
-0.00960283 -0.000646327 0
-0.00893622 -0.000947062 0
-0.00802635 -0.00122507 0
-0.00688783 -0.00146828 0
-0.00556037 -0.00166781 0
-0.00408368 -0.00181481 0
-0.00251515 -0.00188286 0
-0.000912177 -0.00184554 0
0.00063961 -0.00168718 0
0.00205457 -0.00139206 0
0.00319768 -0.000932241 0
0.00393393 -0.000279746 0
0.00321686 0.000164606 0
0 0 0
0 0 0
0.00285481 0.000381129 0
0.0029093 0.00131639 0
0.00140883 0.00236924 0
-0.000401257 0.00310317 0
-0.00243228 0.00355038 0
-0.00459555 0.0037431 0
-0.00677955 0.00372524 0
-0.00887277 0.00354071 0
-0.0108206 0.00322775 0
-0.0125685 0.0028246 0
-0.0140668 0.00234648 0
-0.0152659 0.00180861 0
-0.0161465 0.00122533 0
-0.0166892 0.000610954 0
-0.0168761 -2.1344e-05 0
-0.0166891 -0.000658388 0
-0.0161398 -0.00128742 0
-0.0152394 -0.0018957 0
-0.0140029 -0.00245949 0
-0.0124452 -0.00295509 0
-0.0106255 -0.00336291 0
-0.00860342 -0.00366339 0
-0.00644356 -0.00381598 0
-0.0042107 -0.00378011 0
-0.00202047 -0.00351439 0
1.15346e-05 -0.0029774 0
0.00176109 -0.00216844 0
0.003104 -0.00108677 0
0.00289779 -0.000206073 0
0 0 0
0 0 0
0.00266724 0.00137791 0
0.00242645 0.00290208 0
0.000511596 0.00431586 0
-0.0018434 0.00536259 0
-0.00446303 0.00601514 0
-0.00717177 0.0062464 0
-0.00987816 0.00615692 0
-0.0124907 0.00584727 0
-0.0149237 0.00534421 0
-0.0170912 0.0046745 0
-0.0189488 0.00387794 0
-0.020452 0.0029943 0
-0.0215622 0.00203913 0
-0.0222409 0.001028 0
-0.0224789 -1.67824e-05 0
-0.0222672 -0.0010729 0
-0.0216042 -0.00211281 0
-0.0204887 -0.00310896 0
-0.0189572 -0.00403802 0
-0.0170466 -0.00487664 0
-0.0148018 -0.00556795 0
-0.0122681 -0.00605507 0
-0.00955705 -0.0063148 0
-0.00678041 -0.00632393 0
-0.00403865 -0.00598162 0
-0.00143226 -0.00518704 0
0.000859239 -0.00398947 0
0.00265634 -0.00243821 0
0.0027672 -0.000964606 0
0 0 0
0 0 0
0.00252937 0.00251998 0
0.00199524 0.00482291 0
-0.000346513 0.00675065 0
-0.00324004 0.00814505 0
-0.00643233 0.00898839 0
-0.00967039 0.00926299 0
-0.0128791 0.00910068 0
-0.0159833 0.00863332 0
-0.0188749 0.00789358 0
-0.0214461 0.00691408 0
-0.0236521 0.00574918 0
-0.0254485 0.00445325 0
-0.0267822 0.00305014 0
-0.0276 0.00156371 0
-0.0278955 2.59984e-05 0
-0.0276625 -0.00153096 0
-0.0268915 -0.0030658 0
-0.0255733 -0.00453713 0
-0.023759 -0.00591071 0
-0.0214997 -0.00715229 0
-0.0188365 -0.0081826 0
-0.0158104 -0.00892239 0
-0.0125649 -0.00933396 0
-0.00924311 -0.00937961 0
-0.00594614 -0.00894153 0
-0.00277496 -0.00790192 0
3.95217e-05 -0.00629695 0
0.00226639 -0.00416277 0
0.00266632 -0.00192269 0
0 0 0
0 0 0
0.00235669 0.00341507 0
0.00128415 0.00674727 0
-0.00173168 0.00954293 0
-0.00520485 0.0113484 0
-0.00894214 0.0123442 0
-0.0127504 0.012711 0
-0.0165104 0.012525 0
-0.0201032 0.0118627 0
-0.0234439 0.0108251 0
-0.0264475 0.00951347 0
-0.0290363 0.00795908 0
-0.0311326 0.00619323 0
-0.0326944 0.00426828 0
-0.0336797 0.00223658 0
-0.0340563 0.000138629 0
-0.0337917 -0.00198507 0
-0.0328969 -0.00408971 0
-0.0313827 -0.00613047 0
-0.0292781 -0.00802761 0
-0.0266123 -0.00970139 0
-0.0234768 -0.0111066 0
-0.0199632 -0.0121979 0
-0.0161763 -0.0128281 0
-0.0122206 -0.0128498 0
-0.00827413 -0.0122468 0
-0.00451468 -0.011003 0
-0.00115065 -0.00899249 0
0.00160958 -0.00608917 0
0.00243634 -0.00289202 0
0 0 0
0 0 0
0.00211148 0.00493704 0
0.000490387 0.00943318 0
-0.00318437 0.0130211 0
-0.00723389 0.0152335 0
-0.0115211 0.0163902 0
-0.0159088 0.0168108 0
-0.0202457 0.016552 0
-0.0243803 0.0156702 0
-0.0282315 0.0143071 0
-0.0317185 0.0126047 0
-0.0347374 0.0105861 0
-0.0371845 0.00827462 0
-0.0390162 0.00574564 0
-0.0401891 0.00307461 0
-0.0406579 0.000315044 0
-0.0403773 -0.00247952 0
-0.0393646 -0.0052574 0
-0.0376372 -0.00796693 0
-0.035213 -0.0104882 0
-0.0321102 -0.0127013 0
-0.028454 -0.014567 0
-0.0243701 -0.0160463 0
-0.0199547 -0.0169294 0
-0.0153042 -0.0170069 0
-0.0106485 -0.0162783 0
-0.00621735 -0.014743 0
-0.00225143 -0.012199 0
0.00100845 -0.00844435 0
0.00220977 -0.00415326 0
0 0 0
0 0 0
0.00175602 0.00795979 0
-0.000188811 0.0136387 0
-0.00424505 0.0175136 0
-0.00882322 0.0200613 0
-0.0136977 0.0214337 0
-0.018643 0.0217828 0
-0.0235585 0.0213034 0
-0.0283441 0.0201905 0
-0.032839 0.018508 0
-0.0368824 0.0163198 0
-0.0403918 0.0137088 0
-0.0432846 0.0107578 0
-0.0454649 0.0075343 0
-0.0468369 0.00410579 0
-0.047397 0.00054918 0
-0.0471413 -0.0030586 0
-0.0460386 -0.00664176 0
-0.0440575 -0.0101245 0
-0.0412627 -0.0133919 0
-0.0377194 -0.0163293 0
-0.0334993 -0.0187911 0
-0.0286745 -0.020632 0
-0.0234636 -0.02177 0
-0.0180854 -0.0221236 0
-0.0126953 -0.0214169 0
-0.00744888 -0.0193744 0
-0.00280298 -0.0160394 0
0.000785557 -0.0114553 0
0.0021191 -0.00598708 0
0 0 0
0 0 0
0.00134302 0.0105638 0
-0.00113945 0.0178779 0
-0.00587904 0.0226134 0
-0.0113074 0.0254412 0
-0.0170303 0.0268507 0
-0.0226537 0.0273315 0
-0.0282373 0.0269027 0
-0.0338407 0.0255835 0
-0.0391636 0.0235191 0
-0.0439054 0.0208544 0
-0.048011 0.0176513 0
-0.0514255 0.0139716 0
-0.0540051 0.00993879 0
-0.055606 0.00567643 0
-0.0562675 0.00126326 0
-0.0560289 -0.00322198 0
-0.0548071 -0.00769691 0
-0.0525189 -0.0120792 0
-0.049288 -0.0161963 0
-0.0452379 -0.0198758 0
-0.0403543 -0.0229857 0
-0.0346233 -0.025394 0
-0.0284408 -0.0268825 0
-0.0222026 -0.0272327 0
-0.0159262 -0.0263302 0
-0.00962887 -0.0240603 0
-0.00401171 -0.0200573 0
0.000224175 -0.0139553 0
0.00194075 -0.00689071 0
0 0 0
0 0 0
0.000925167 0.0108295 0
-0.00274754 0.020665 0
-0.00905171 0.0279136 0
-0.0160209 0.0309827 0
-0.023077 0.0320171 0
-0.0296419 0.0331615 0
-0.0360701 0.0334731 0
-0.0427161 0.0320088 0
-0.0491029 0.0294314 0
-0.0547537 0.0264039 0
-0.0596066 0.0227377 0
-0.0635997 0.0182448 0
-0.0666011 0.0132636 0
-0.068479 0.00813284 0
-0.0692635 0.00287951 0
-0.068985 -0.00246929 0
-0.067558 -0.00787701 0
-0.0648972 -0.0133071 0
-0.06115 -0.0183587 0
-0.0564637 -0.0226312 0
-0.0507607 -0.0263576 0
-0.0439633 -0.0297714 0
-0.0366238 -0.0317991 0
-0.0292946 -0.0313673 0
-0.0218531 -0.0296855 0
-0.0141769 -0.0279637 0
-0.00708401 -0.0237963 0
-0.00139242 -0.0147778 0
0.00145116 -0.00536136 0
0 0 0
0 0 0
-0.000573108 0.0109424 0
-0.00502757 0.0232085 0
-0.0120626 0.0330655 0
-0.0203773 0.0367809 0
-0.0289492 0.0378072 0
-0.0367555 0.039597 0
-0.044318 0.0404908 0
-0.0521583 0.038829 0
-0.0596596 0.0356753 0
-0.066205 0.0320935 0
-0.07178 0.0277528 0
-0.0763699 0.0223224 0
-0.0798371 0.0162958 0
-0.0820435 0.0101663 0
-0.0829942 0.00393205 0
-0.0826941 -0.00240912 0
-0.0810824 -0.00887352 0
-0.0780983 -0.0154775 0
-0.0738755 -0.021619 0
-0.0685474 -0.026696 0
-0.0620128 -0.0312448 0
-0.0541701 -0.0358019 0
-0.0456724 -0.0385546 0
-0.0371729 -0.0376901 0
-0.0283836 -0.0354429 0
-0.0190166 -0.0340473 0
-0.0103768 -0.0295328 0
-0.00376871 -0.0179287 0
-3.04386e-05 -0.00587204 0
0 0 0
0 0 0
-0.00422738 0.0130881 0
-0.00799401 0.0267171 0
-0.0132112 0.0377202 0
-0.0217903 0.0429307 0
-0.0317583 0.0450957 0
-0.0411422 0.0469623 0
-0.0502415 0.0474321 0
-0.0593555 0.0454068 0
-0.0678365 0.0416809 0
-0.075037 0.0370486 0
-0.0811326 0.0314811 0
-0.086299 0.0249494 0
-0.0902971 0.0178223 0
-0.0928874 0.0104683 0
-0.094069 0.00295501 0
-0.0938409 -0.00465003 0
-0.0921714 -0.0123779 0
-0.0890285 -0.0202597 0
-0.0844915 -0.0277169 0
-0.0786395 -0.0341709 0
-0.0714047 -0.0399851 0
-0.0627192 -0.0455232 0
-0.0532464 -0.0491834 0
-0.0436492 -0.0493641 0
-0.0334252 -0.0475621 0
-0.0220717 -0.0452738 0
-0.012247 -0.039543 0
-0.00660921 -0.0274136 0
-0.00318478 -0.0128958 0
0 0 0
0 0 0
-0.00702697 0.0176959 0
-0.0102755 0.0326753 0
-0.0141952 0.0441675 0
-0.0232355 0.0514017 0
-0.0346635 0.0552996 0
-0.045746 0.0567829 0
-0.0564946 0.0560913 0
-0.066921 0.0534647 0
-0.0763921 0.0490737 0
-0.0842752 0.0430889 0
-0.0909079 0.0359729 0
-0.0966281 0.0281883 0
-0.10112 0.0198634 0
-0.104068 0.0111267 0
-0.105478 0.00212095 0
-0.105356 -0.0070114 0
-0.103685 -0.0162355 0
-0.100447 -0.0255166 0
-0.0956521 -0.0344866 0
-0.0893107 -0.0427772 0
-0.0814063 -0.0502199 0
-0.0719226 -0.0566461 0
-0.0614471 -0.0612608 0
-0.0505674 -0.0632694 0
-0.0387565 -0.0624383 0
-0.0254876 -0.0585339 0
-0.0144457 -0.0509065 0
-0.00931596 -0.0389063 0
-0.00590013 -0.0220864 0
0 0 0
0 0 0
-0.00596119 0.0251953 0
-0.0105007 0.0425677 0
-0.016712 0.0546971 0
-0.0276888 0.0641632 0
-0.0408239 0.0698357 0
-0.0535105 0.0705842 0
-0.065731 0.0682628 0
-0.0774682 0.064725 0
-0.0880853 0.0594794 0
-0.0969454 0.0520343 0
-0.104349 0.0432786 0
-0.110598 0.0341013 0
-0.115445 0.0244394 0
-0.118644 0.0142298 0
-0.120213 0.00360246 0
-0.120171 -0.00731262 0
-0.118483 -0.0182918 0
-0.115112 -0.0291112 0
-0.110011 -0.0397624 0
-0.103132 -0.0502365 0
-0.0944874 -0.0595905 0
-0.0840919 -0.0668815 0
-0.0723761 -0.0723624 0
-0.0597711 -0.0762861 0
-0.046156 -0.0764667 0
-0.0314098 -0.0707187 0
-0.0187242 -0.060703 0
-0.011291 -0.0480805 0
-0.00606476 -0.0290975 0
0 0 0
0 0 0
-0.00347663 0.0330156 0
-0.0101522 0.0541184 0
-0.0202161 0.0680228 0
-0.0338577 0.0794431 0
-0.048979 0.086249 0
-0.0634821 0.08631 0
-0.0773235 0.0825007 0
-0.0904595 0.0776956 0
-0.10229 0.0711551 0
-0.112216 0.0621397 0
-0.120444 0.0517214 0
-0.127185 0.0409721 0
-0.132316 0.0297625 0
-0.135715 0.017963 0
-0.137425 0.00564779 0
-0.137486 -0.00710894 0
-0.135818 -0.0199543 0
-0.13234 -0.0325355 0
-0.126964 -0.0450765 0
-0.119605 -0.0578015 0
-0.110224 -0.0692498 0
-0.0987845 -0.077961 0
-0.0855896 -0.0847139 0
-0.0709417 -0.0902875 0
-0.0552032 -0.0912903 0
-0.0387366 -0.0843308 0
-0.023782 -0.0721062 0
-0.0125794 -0.0573138 0
-0.0047713 -0.0349472 0
0 0 0
0 0 0
-0.00201986 0.0385861 0
-0.0107127 0.0650513 0
-0.0241617 0.0828582 0
-0.0404499 0.0954694 0
-0.0578682 0.102085 0
-0.0747074 0.101904 0
-0.0906446 0.0973594 0
-0.105357 0.0908839 0
-0.118381 0.0823575 0
-0.129254 0.0716601 0
-0.13818 0.0596247 0
-0.145364 0.0470844 0
-0.150775 0.0340448 0
-0.154383 0.0205119 0
-0.156266 0.00650519 0
-0.156502 -0.0079556 0
-0.154944 -0.022631 0
-0.151445 -0.0372814 0
-0.145906 -0.0519613 0
-0.138231 -0.0667251 0
-0.128191 -0.0803507 0
-0.115558 -0.0916159 0
-0.100644 -0.100541 0
-0.0837601 -0.107147 0
-0.0654774 -0.108552 0
-0.0463662 -0.101873 0
-0.0283184 -0.08829 0
-0.0132262 -0.0689835 0
-0.00311238 -0.0406534 0
0 0 0
0 0 0
-0.00175035 0.0443048 0
-0.0123138 0.0770018 0
-0.0285223 0.0994806 0
-0.0472075 0.113131 0
-0.066797 0.119099 0
-0.0857184 0.118529 0
-0.103387 0.113137 0
-0.119217 0.104639 0
-0.132928 0.0937316 0
-0.144236 0.0811124 0
-0.153396 0.0673166 0
-0.160661 0.0528792 0
-0.16609 0.0379494 0
-0.169741 0.0226762 0
-0.171718 0.00702146 0
-0.172127 -0.00905317 0
-0.170779 -0.0255011 0
-0.167486 -0.0422758 0
-0.162114 -0.0591945 0
-0.154528 -0.0760743 0
-0.144303 -0.0921107 0
-0.131015 -0.106499 0
-0.114948 -0.11819 0
-0.0963842 -0.126137 0
-0.0759217 -0.128268 0
-0.054158 -0.122514 0
-0.0330493 -0.107844 0
-0.0145515 -0.0832307 0
-0.00231742 -0.0476301 0
0 0 0
0 0 0
-0.00282756 0.0525695 0
-0.0150871 0.0916049 0
-0.0332713 0.118167 0
-0.0538727 0.133318 0
-0.0750713 0.139048 0
-0.0950472 0.13735 0
-0.113242 0.130134 0
-0.129096 0.11931 0
-0.142498 0.105922 0
-0.153337 0.0910135 0
-0.161932 0.0751249 0
-0.168604 0.0587978 0
-0.173529 0.0421391 0
-0.176883 0.0252557 0
-0.178763 0.00804336 0
-0.179268 -0.00960221 0
-0.178241 -0.0277442 0
-0.175523 -0.0464457 0
-0.170865 -0.0655539 0
-0.164013 -0.0849161 0
-0.154475 -0.103747 0
-0.141761 -0.121262 0
-0.125912 -0.136007 0
-0.106972 -0.146528 0
-0.0854789 -0.150456 0
-0.0619715 -0.145423 0
-0.0386902 -0.129359 0
-0.0178755 -0.100197 0
-0.00361588 -0.0572914 0
0 0 0
0 0 0
-0.00430334 0.062699 0
-0.018293 0.108356 0
-0.0381324 0.138582 0
-0.0599853 0.154991 0
-0.0818622 0.160156 0
-0.101773 0.15665 0
-0.119288 0.14693 0
-0.133976 0.133452 0
-0.145956 0.117443 0
-0.155348 0.100127 0
-0.16255 0.0821222 0
-0.167962 0.0640486 0
-0.171872 0.0459027 0
-0.174568 0.0276818 0
-0.176144 0.00919698 0
-0.176695 -0.00974036 0
-0.176112 -0.0292852 0
-0.17429 -0.0495926 0
-0.170863 -0.0706488 0
-0.165465 -0.0924404 0
-0.157572 -0.114115 0
-0.14666 -0.13482 0
-0.132393 -0.152937 0
-0.114438 -0.16685 0
-0.0932139 -0.173458 0
-0.0691384 -0.169661 0
-0.0445804 -0.152619 0
-0.0219086 -0.119489 0
-0.00556705 -0.0690294 0
0 0 0
0 0 0
-0.00522956 0.074012 0
-0.0211918 0.126748 0
-0.0428295 0.160389 0
-0.0650855 0.177113 0
-0.0863409 0.180646 0
-0.104976 0.174712 0
-0.120605 0.162105 0
-0.13284 0.14562 0
-0.142164 0.126807 0
-0.14906 0.107215 0
-0.154012 0.0873811 0
-0.157506 0.0678399 0
-0.1599 0.0485291 0
-0.161556 0.0293859 0
-0.162604 0.0101084 0
-0.163176 -0.00960525 0
-0.163179 -0.0300493 0
-0.162521 -0.0515181 0
-0.160813 -0.0740883 0
-0.157665 -0.097837 0
-0.15246 -0.122068 0
-0.14458 -0.146085 0
-0.133252 -0.167927 0
-0.117701 -0.185633 0
-0.0981917 -0.195617 0
-0.0749904 -0.194292 0
-0.0500594 -0.177408 0
-0.0253613 -0.140714 0
-0.0067302 -0.0822365 0
0 0 0
0 0 0
-0.00622343 0.0868839 0
-0.0236651 0.146549 0
-0.0462342 0.182575 0
-0.0678398 0.198544 0
-0.0871522 0.199421 0
-0.102841 0.190168 0
-0.114851 0.174072 0
-0.123125 0.154418 0
-0.128503 0.132943 0
-0.131822 0.111382 0
-0.133657 0.0901366 0
-0.134581 0.0696062 0
-0.134987 0.0496576 0
-0.135266 0.0301573 0
-0.135587 0.0106857 0
-0.136119 -0.00917655 0
-0.136788 -0.0298708 0
-0.137517 -0.0518381 0
-0.137952 -0.0752618 0
-0.137738 -0.100325 0
-0.136174 -0.126572 0
-0.132558 -0.153546 0
-0.125732 -0.179123 0
-0.114535 -0.201178 0
-0.0987088 -0.215507 0
-0.0779952 -0.217905 0
-0.0539763 -0.202532 0
-0.0282343 -0.16355 0
-0.007874 -0.0972685 0
0 0 0
0 0 0
-0.00790219 0.10169 0
-0.0255946 0.167522 0
-0.0472185 0.204129 0
-0.0669149 0.218145 0
-0.0829409 0.21538 0
-0.0935538 0.201647 0
-0.0996854 0.181239 0
-0.102268 0.158451 0
-0.10235 0.134782 0
-0.100984 0.111732 0
-0.098826 0.0896243 0
-0.0965365 0.068782 0
-0.0945035 0.048928 0
-0.0931156 0.0297854 0
-0.0925379 0.0108371 0
-0.0929357 -0.00843391 0
-0.0942899 -0.0285838 0
-0.0965813 -0.0501688 0
-0.0995184 -0.0735587 0
-0.10281 -0.0991234 0
-0.105749 -0.126591 0
-0.10763 -0.155691 0
-0.107078 -0.184672 0
-0.102719 -0.211785 0
-0.0930621 -0.2317 0
-0.0766206 -0.239088 0
-0.0551806 -0.226796 0
-0.0305283 -0.18767 0
-0.00976709 -0.114481 0
0 0 0
0 0 0
-0.0089489 0.116971 0
-0.0264641 0.187982 0
-0.045992 0.223301 0
-0.0609792 0.233195 0
-0.0703731 0.225037 0
-0.0731213 0.206196 0
-0.0711504 0.181616 0
-0.0663873 0.156241 0
-0.0599924 0.131161 0
-0.053126 0.107467 0
-0.0464442 0.0853649 0
-0.0406031 0.0650593 0
-0.0359275 0.0461192 0
-0.0327425 0.0281131 0
-0.0311802 0.0104542 0
-0.0313731 -0.00744417 0
-0.0333693 -0.0262146 0
-0.0372173 -0.0464897 0
-0.0427408 -0.0688304 0
-0.0497636 -0.0937976 0
-0.057692 -0.121329 0
-0.0659325 -0.151363 0
-0.0730728 -0.182763 0
-0.077701 -0.214396 0
-0.0771649 -0.240315 0
-0.0688127 -0.254574 0
-0.0533332 -0.247917 0
-0.0314155 -0.211086 0
-0.0109933 -0.132355 0
0 0 0
0 0 0
-0.00804662 0.131269 0
-0.0257572 0.206243 0
-0.0427645 0.23834 0
-0.0487015 0.240978 0
-0.0461149 0.224902 0
-0.0375516 0.20086 0
-0.0252889 0.17321 0
-0.0116044 0.146311 0
0.00228674 0.120919 0
0.015169 0.0977917 0
0.0265623 0.0768791 0
0.0359865 0.0581306 0
0.0432642 0.0410106 0
0.0482175 0.0249836 0
0.0507638 0.00942895 0
0.0508199 -0.00627417 0
0.048288 -0.0227894 0
0.0430702 -0.0407806 0
0.0351512 -0.0609281 0
0.024516 -0.0839126 0
0.0114899 -0.109987 0
-0.0036018 -0.139404 0
-0.0194965 -0.171585 0
-0.0349317 -0.205953 0
-0.0469308 -0.237469 0
-0.0525174 -0.261094 0
-0.0480952 -0.263612 0
-0.0300681 -0.231807 0
-0.0101363 -0.149372 0
0 0 0
0 0 0
-0.0070599 0.147039 0
-0.0199387 0.220702 0
-0.0275707 0.242949 0
-0.0188898 0.235742 0
-0.000305534 0.211812 0
0.0217727 0.183894 0
0.0452676 0.155063 0
0.0681022 0.128394 0
0.0892385 0.104292 0
0.107639 0.0831639 0
0.123139 0.0646694 0
0.135575 0.0484702 0
0.144971 0.0339898 0
0.151348 0.020652 0
0.154691 0.00785257 0
0.154984 -0.00501289 0
0.152093 -0.0185834 0
0.145883 -0.0334981 0
0.136127 -0.0504649 0
0.122601 -0.0701919 0
0.105245 -0.0932469 0
0.0840058 -0.120198 0
0.0597402 -0.150966 0
0.0333076 -0.185471 0
0.00720547 -0.220452 0
-0.0160687 -0.252646 0
-0.0285078 -0.266644 0
-0.0221051 -0.247039 0
-0.00866694 -0.167076 0
0 0 0
0 0 0
-0.00785329 0.166735 0
-0.0054736 0.229753 0
0.00955482 0.230829 0
0.0396477 0.211737 0
0.0769155 0.182603 0
0.113469 0.153551 0
0.147888 0.126213 0
0.178753 0.102223 0
0.205614 0.0815189 0
0.228021 0.0640421 0
0.246232 0.049238 0
0.260507 0.0365524 0
0.271091 0.0254444 0
0.278231 0.0153734 0
0.281997 0.00581639 0
0.282459 -0.00374935 0
0.279455 -0.0138718 0
0.272821 -0.0250989 0
0.262157 -0.0380535 0
0.247061 -0.0533586 0
0.227024 -0.071791 0
0.201534 -0.0941274 0
0.170727 -0.120731 0
0.134735 -0.151964 0
0.0948094 -0.186554 0
0.0521997 -0.223226 0
0.0163877 -0.249773 0
-0.00314549 -0.253987 0
-0.00805597 -0.187014 0
0 0 0
0 0 0
0.0146492 0.1644 0
0.0487509 0.210889 0
0.0956368 0.193913 0
0.148639 0.167919 0
0.201828 0.138923 0
0.249276 0.112941 0
0.290685 0.0903156 0
0.32576 0.0713892 0
0.354869 0.0557802 0
0.378383 0.0431069 0
0.396954 0.0327366 0
0.411234 0.0240366 0
0.421644 0.016576 0
0.428609 0.00992369 0
0.432268 0.00368615 0
0.432765 -0.00253022 0
0.429927 -0.0091346 0
0.423581 -0.0165362 0
0.413225 -0.0251938 0
0.398355 -0.0355663 0
0.378101 -0.0484656 0
0.351588 -0.064704 0
0.318094 -0.0848661 0
0.276896 -0.109537 0
0.227632 -0.139044 0
0.16994 -0.173716 0
0.110633 -0.206452 0
0.0565252 -0.230152 0
0.0166397 -0.182205 0
0 0 0
2.77334e-30 0 0
0.0855236 0.114075 0
0.173847 0.141602 0
0.2577 0.12414 0
0.329812 0.103244 0
0.390713 0.0824205 0
0.440932 0.0651747 0
0.481772 0.0510242 0
0.514533 0.0394863 0
0.540458 0.0302587 0
0.560794 0.0230389 0
0.576417 0.0173168 0
0.588208 0.0125823 0
0.596648 0.00858608 0
0.602219 0.0050791 0
0.605088 0.0018276 0
0.605421 -0.00140215 0
0.603062 -0.00485188 0
0.597857 -0.00876335 0
0.589313 -0.0133857 0
0.576939 -0.0189682 0
0.559753 -0.0261171 0
0.53677 -0.0354385 0
0.506472 -0.0473561 0
0.467336 -0.0622935 0
0.417425 -0.0811925 0
0.354804 -0.104995 0
0.278271 -0.130132 0
0.186622 -0.153038 0
0.0903631 -0.125673 0
2.77334e-30 0 0
0.25 0 0
0.361673 0.048396 0
0.460652 0.0589526 0
0.543302 0.0500032 0
0.605991 0.0398809 0
0.65347 0.0303585 0
0.69049 0.0232089 0
0.718945 0.017774 0
0.740727 0.0133959 0
0.757222 0.00998748 0
0.769812 0.00746193 0
0.77923 0.0055481 0
0.786205 0.00397485 0
0.7911 0.00266423 0
0.794278 0.0015383 0
0.795863 0.000509352 0
0.795981 -0.000510342 0
0.79453 -0.00161118 0
0.791409 -0.00288355 0
0.786284 -0.00439817 0
0.778818 -0.00622575 0
0.768284 -0.00865774 0
0.753952 -0.0119856 0
0.734295 -0.0163508 0
0.707791 -0.0218947 0
0.672208 -0.0293832 0