<?xml version="1.0"?>
<VTKFile type="UnstructuredGrid">
  <UnstructuredGrid>
  <Piece NumberOfPoints="961"  NumberOfCells="225">
    <Points>
      <DataArray type="Float64" NumberOfComponents="3" format="ascii">
0 0 0
0.0333333 0 0
0.0666667 0 0
0.1 0 0
0.133333 0 0
0.166667 0 0
0.2 0 0
0.233333 0 0
0.266667 0 0
0.3 0 0
0.333333 0 0
0.366667 0 0
0.4 0 0
0.433333 0 0
0.466667 0 0
0.5 0 0
0.533333 0 0
0.566667 0 0
0.6 0 0
0.633333 0 0
0.666667 0 0
0.7 0 0
0.733333 0 0
0.766667 0 0
0.8 0 0
0.833333 0 0
0.866667 0 0
0.9 0 0
0.933333 0 0
0.966667 0 0
1 0 0
0 0.0333333 0
0.0333333 0.0333333 0
0.0666667 0.0333333 0
0.1 0.0333333 0
0.133333 0.0333333 0
0.166667 0.0333333 0
0.2 0.0333333 0
0.233333 0.0333333 0
0.266667 0.0333333 0
0.3 0.0333333 0
0.333333 0.0333333 0
0.366667 0.0333333 0
0.4 0.0333333 0
0.433333 0.0333333 0
0.466667 0.0333333 0
0.5 0.0333333 0
0.533333 0.0333333 0
0.566667 0.0333333 0
0.6 0.0333333 0
0.633333 0.0333333 0
0.666667 0.0333333 0
0.7 0.0333333 0
0.733333 0.0333333 0
0.766667 0.0333333 0
0.8 0.0333333 0
0.833333 0.0333333 0
0.866667 0.0333333 0
0.9 0.0333333 0
0.933333 0.0333333 0
0.966667 0.0333333 0
1 0.0333333 0
0 0.0666667 0
0.0333333 0.0666667 0
0.0666667 0.0666667 0
0.1 0.0666667 0
0.133333 0.0666667 0
0.166667 0.0666667 0
0.2 0.0666667 0
0.233333 0.0666667 0
0.266667 0.0666667 0
0.3 0.0666667 0
0.333333 0.0666667 0
0.366667 0.0666667 0
0.4 0.0666667 0
0.433333 0.0666667 0
0.466667 0.0666667 0
0.5 0.0666667 0
0.533333 0.0666667 0
0.566667 0.0666667 0
0.6 0.0666667 0
0.633333 0.0666667 0
0.666667 0.0666667 0
0.7 0.0666667 0
0.733333 0.0666667 0
0.766667 0.0666667 0
0.8 0.0666667 0
0.833333 0.0666667 0
0.866667 0.0666667 0
0.9 0.0666667 0
0.933333 0.0666667 0
0.966667 0.0666667 0
1 0.0666667 0
0 0.1 0
0.0333333 0.1 0
0.0666667 0.1 0
0.1 0.1 0
0.133333 0.1 0
0.166667 0.1 0
0.2 0.1 0
0.233333 0.1 0
0.266667 0.1 0
0.3 0.1 0
0.333333 0.1 0
0.366667 0.1 0
0.4 0.1 0
0.433333 0.1 0
0.466667 0.1 0
0.5 0.1 0
0.533333 0.1 0
0.566667 0.1 0
0.6 0.1 0
0.633333 0.1 0
0.666667 0.1 0
0.7 0.1 0
0.733333 0.1 0
0.766667 0.1 0
0.8 0.1 0
0.833333 0.1 0
0.866667 0.1 0
0.9 0.1 0
0.933333 0.1 0
0.966667 0.1 0
1 0.1 0
0 0.133333 0
0.0333333 0.133333 0
0.0666667 0.133333 0
0.1 0.133333 0
0.133333 0.133333 0
0.166667 0.133333 0
0.2 0.133333 0
0.233333 0.133333 0
0.266667 0.133333 0
0.3 0.133333 0
0.333333 0.133333 0
0.366667 0.133333 0
0.4 0.133333 0
0.433333 0.133333 0
0.466667 0.133333 0
0.5 0.133333 0
0.533333 0.133333 0
0.566667 0.133333 0
0.6 0.133333 0
0.633333 0.133333 0
0.666667 0.133333 0
0.7 0.133333 0
0.733333 0.133333 0
0.766667 0.133333 0
0.8 0.133333 0
0.833333 0.133333 0
0.866667 0.133333 0
0.9 0.133333 0
0.933333 0.133333 0
0.966667 0.133333 0
1 0.133333 0
0 0.166667 0
0.0333333 0.166667 0
0.0666667 0.166667 0
0.1 0.166667 0
0.133333 0.166667 0
0.166667 0.166667 0
0.2 0.166667 0
0.233333 0.166667 0
0.266667 0.166667 0
0.3 0.166667 0
0.333333 0.166667 0
0.366667 0.166667 0
0.4 0.166667 0
0.433333 0.166667 0
0.466667 0.166667 0
0.5 0.166667 0
0.533333 0.166667 0
0.566667 0.166667 0
0.6 0.166667 0
0.633333 0.166667 0
0.666667 0.166667 0
0.7 0.166667 0
0.733333 0.166667 0
0.766667 0.166667 0
0.8 0.166667 0
0.833333 0.166667 0
0.866667 0.166667 0
0.9 0.166667 0
0.933333 0.166667 0
0.966667 0.166667 0
1 0.166667 0
0 0.2 0
0.0333333 0.2 0
0.0666667 0.2 0
0.1 0.2 0
0.133333 0.2 0
0.166667 0.2 0
0.2 0.2 0
0.233333 0.2 0
0.266667 0.2 0
0.3 0.2 0
0.333333 0.2 0
0.366667 0.2 0
0.4 0.2 0
0.433333 0.2 0
0.466667 0.2 0
0.5 0.2 0
0.533333 0.2 0
0.566667 0.2 0
0.6 0.2 0
0.633333 0.2 0
0.666667 0.2 0
0.7 0.2 0
0.733333 0.2 0
0.766667 0.2 0
0.8 0.2 0
0.833333 0.2 0
0.866667 0.2 0
0.9 0.2 0
0.933333 0.2 0
0.966667 0.2 0
1 0.2 0
0 0.233333 0
0.0333333 0.233333 0
0.0666667 0.233333 0
0.1 0.233333 0
0.133333 0.233333 0
0.166667 0.233333 0
0.2 0.233333 0
0.233333 0.233333 0
0.266667 0.233333 0
0.3 0.233333 0
0.333333 0.233333 0
0.366667 0.233333 0
0.4 0.233333 0
0.433333 0.233333 0
0.466667 0.233333 0
0.5 0.233333 0
0.533333 0.233333 0
0.566667 0.233333 0
0.6 0.233333 0
0.633333 0.233333 0
0.666667 0.233333 0
0.7 0.233333 0
0.733333 0.233333 0
0.766667 0.233333 0
0.8 0.233333 0
0.833333 0.233333 0
0.866667 0.233333 0
0.9 0.233333 0
0.933333 0.233333 0
0.966667 0.233333 0
1 0.233333 0
0 0.266667 0
0.0333333 0.266667 0
0.0666667 0.266667 0
0.1 0.266667 0
0.133333 0.266667 0
0.166667 0.266667 0
0.2 0.266667 0
0.233333 0.266667 0
0.266667 0.266667 0
0.3 0.266667 0
0.333333 0.266667 0
0.366667 0.266667 0
0.4 0.266667 0
0.433333 0.266667 0
0.466667 0.266667 0
0.5 0.266667 0
0.533333 0.266667 0
0.566667 0.266667 0
0.6 0.266667 0
0.633333 0.266667 0
0.666667 0.266667 0
0.7 0.266667 0
0.733333 0.266667 0
0.766667 0.266667 0
0.8 0.266667 0
0.833333 0.266667 0
0.866667 0.266667 0
0.9 0.266667 0
0.933333 0.266667 0
0.966667 0.266667 0
1 0.266667 0
0 0.3 0
0.0333333 0.3 0
0.0666667 0.3 0
0.1 0.3 0
0.133333 0.3 0
0.166667 0.3 0
0.2 0.3 0
0.233333 0.3 0
0.266667 0.3 0
0.3 0.3 0
0.333333 0.3 0
0.366667 0.3 0
0.4 0.3 0
0.433333 0.3 0
0.466667 0.3 0
0.5 0.3 0
0.533333 0.3 0
0.566667 0.3 0
0.6 0.3 0
0.633333 0.3 0
0.666667 0.3 0
0.7 0.3 0
0.733333 0.3 0
0.766667 0.3 0
0.8 0.3 0
0.833333 0.3 0
0.866667 0.3 0
0.9 0.3 0
0.933333 0.3 0
0.966667 0.3 0
1 0.3 0
0 0.333333 0
0.0333333 0.333333 0
0.0666667 0.333333 0
0.1 0.333333 0
0.133333 0.333333 0
0.166667 0.333333 0
0.2 0.333333 0
0.233333 0.333333 0
0.266667 0.333333 0
0.3 0.333333 0
0.333333 0.333333 0
0.366667 0.333333 0
0.4 0.333333 0
0.433333 0.333333 0
0.466667 0.333333 0
0.5 0.333333 0
0.533333 0.333333 0
0.566667 0.333333 0
0.6 0.333333 0
0.633333 0.333333 0
0.666667 0.333333 0
0.7 0.333333 0
0.733333 0.333333 0
0.766667 0.333333 0
0.8 0.333333 0
0.833333 0.333333 0
0.866667 0.333333 0
0.9 0.333333 0
0.933333 0.333333 0
0.966667 0.333333 0
1 0.333333 0
0 0.366667 0
0.0333333 0.366667 0
0.0666667 0.366667 0
0.1 0.366667 0
0.133333 0.366667 0
0.166667 0.366667 0
0.2 0.366667 0
0.233333 0.366667 0
0.266667 0.366667 0
0.3 0.366667 0
0.333333 0.366667 0
0.366667 0.366667 0
0.4 0.366667 0
0.433333 0.366667 0
0.466667 0.366667 0
0.5 0.366667 0
0.533333 0.366667 0
0.566667 0.366667 0
0.6 0.366667 0
0.633333 0.366667 0
0.666667 0.366667 0
0.7 0.366667 0
0.733333 0.366667 0
0.766667 0.366667 0
0.8 0.366667 0
0.833333 0.366667 0
0.866667 0.366667 0
0.9 0.366667 0
0.933333 0.366667 0
0.966667 0.366667 0
1 0.366667 0
0 0.4 0
0.0333333 0.4 0
0.0666667 0.4 0
0.1 0.4 0
0.133333 0.4 0
0.166667 0.4 0
0.2 0.4 0
0.233333 0.4 0
0.266667 0.4 0
0.3 0.4 0
0.333333 0.4 0
0.366667 0.4 0
0.4 0.4 0
0.433333 0.4 0
0.466667 0.4 0
0.5 0.4 0
0.533333 0.4 0
0.566667 0.4 0
0.6 0.4 0
0.633333 0.4 0
0.666667 0.4 0
0.7 0.4 0
0.733333 0.4 0
0.766667 0.4 0
0.8 0.4 0
0.833333 0.4 0
0.866667 0.4 0
0.9 0.4 0
0.933333 0.4 0
0.966667 0.4 0
1 0.4 0
0 0.433333 0
0.0333333 0.433333 0
0.0666667 0.433333 0
0.1 0.433333 0
0.133333 0.433333 0
0.166667 0.433333 0
0.2 0.433333 0
0.233333 0.433333 0
0.266667 0.433333 0
0.3 0.433333 0
0.333333 0.433333 0
0.366667 0.433333 0
0.4 0.433333 0
0.433333 0.433333 0
0.466667 0.433333 0
0.5 0.433333 0
0.533333 0.433333 0
0.566667 0.433333 0
0.6 0.433333 0
0.633333 0.433333 0
0.666667 0.433333 0
0.7 0.433333 0
0.733333 0.433333 0
0.766667 0.433333 0
0.8 0.433333 0
0.833333 0.433333 0
0.866667 0.433333 0
0.9 0.433333 0
0.933333 0.433333 0
0.966667 0.433333 0
1 0.433333 0
0 0.466667 0
0.0333333 0.466667 0
0.0666667 0.466667 0
0.1 0.466667 0
0.133333 0.466667 0
0.166667 0.466667 0
0.2 0.466667 0
0.233333 0.466667 0
0.266667 0.466667 0
0.3 0.466667 0
0.333333 0.466667 0
0.366667 0.466667 0
0.4 0.466667 0
0.433333 0.466667 0
0.466667 0.466667 0
0.5 0.466667 0
0.533333 0.466667 0
0.566667 0.466667 0
0.6 0.466667 0
0.633333 0.466667 0
0.666667 0.466667 0
0.7 0.466667 0
0.733333 0.466667 0
0.766667 0.466667 0
0.8 0.466667 0
0.833333 0.466667 0
0.866667 0.466667 0
0.9 0.466667 0
0.933333 0.466667 0
0.966667 0.466667 0
1 0.466667 0
0 0.5 0
0.0333333 0.5 0
0.0666667 0.5 0
0.1 0.5 0
0.133333 0.5 0
0.166667 0.5 0
0.2 0.5 0
0.233333 0.5 0
0.266667 0.5 0
0.3 0.5 0
0.333333 0.5 0
0.366667 0.5 0
0.4 0.5 0
0.433333 0.5 0
0.466667 0.5 0
0.5 0.5 0
0.533333 0.5 0
0.566667 0.5 0
0.6 0.5 0
0.633333 0.5 0
0.666667 0.5 0
0.7 0.5 0
0.733333 0.5 0
0.766667 0.5 0
0.8 0.5 0
0.833333 0.5 0
0.866667 0.5 0
0.9 0.5 0
0.933333 0.5 0
0.966667 0.5 0
1 0.5 0
0 0.533333 0
0.0333333 0.533333 0
0.0666667 0.533333 0
0.1 0.533333 0
0.133333 0.533333 0
0.166667 0.533333 0
0.2 0.533333 0
0.233333 0.533333 0
0.266667 0.533333 0
0.3 0.533333 0
0.333333 0.533333 0
0.366667 0.533333 0
0.4 0.533333 0
0.433333 0.533333 0
0.466667 0.533333 0
0.5 0.533333 0
0.533333 0.533333 0
0.566667 0.533333 0
0.6 0.533333 0
0.633333 0.533333 0
0.666667 0.533333 0
0.7 0.533333 0
0.733333 0.533333 0
0.766667 0.533333 0
0.8 0.533333 0
0.833333 0.533333 0
0.866667 0.533333 0
0.9 0.533333 0
0.933333 0.533333 0
0.966667 0.533333 0
1 0.533333 0
0 0.566667 0
0.0333333 0.566667 0
0.0666667 0.566667 0
0.1 0.566667 0
0.133333 0.566667 0
0.166667 0.566667 0
0.2 0.566667 0
0.233333 0.566667 0
0.266667 0.566667 0
0.3 0.566667 0
0.333333 0.566667 0
0.366667 0.566667 0
0.4 0.566667 0
0.433333 0.566667 0
0.466667 0.566667 0
0.5 0.566667 0
0.533333 0.566667 0
0.566667 0.566667 0
0.6 0.566667 0
0.633333 0.566667 0
0.666667 0.566667 0
0.7 0.566667 0
0.733333 0.566667 0
0.766667 0.566667 0
0.8 0.566667 0
0.833333 0.566667 0
0.866667 0.566667 0
0.9 0.566667 0
0.933333 0.566667 0
0.966667 0.566667 0
1 0.566667 0
0 0.6 0
0.0333333 0.6 0
0.0666667 0.6 0
0.1 0.6 0
0.133333 0.6 0
0.166667 0.6 0
0.2 0.6 0
0.233333 0.6 0
0.266667 0.6 0
0.3 0.6 0
0.333333 0.6 0
0.366667 0.6 0
0.4 0.6 0
0.433333 0.6 0
0.466667 0.6 0
0.5 0.6 0
0.533333 0.6 0
0.566667 0.6 0
0.6 0.6 0
0.633333 0.6 0
0.666667 0.6 0
0.7 0.6 0
0.733333 0.6 0
0.766667 0.6 0
0.8 0.6 0
0.833333 0.6 0
0.866667 0.6 0
0.9 0.6 0
0.933333 0.6 0
0.966667 0.6 0
1 0.6 0
0 0.633333 0
0.0333333 0.633333 0
0.0666667 0.633333 0
0.1 0.633333 0
0.133333 0.633333 0
0.166667 0.633333 0
0.2 0.633333 0
0.233333 0.633333 0
0.266667 0.633333 0
[...]
    <PointData>
      <DataArray type="Float64" NumberOfComponents="3" Name="Velocity" format="ascii">
0 0 0
0 0 0
0 0 0
0 0 0
0 0 0
0 0 0
0 0 0
0 0 0
0 0 0
0 0 0
0 0 0
0 0 0
0 0 0
0 0 0
0 0 0
0 0 0
0 0 0
0 0 0
0 0 0
0 0 0
0 0 0
0 0 0
0 0 0
0 0 0
0 0 0
0 0 0
0 0 0
0 0 0
0 0 0
0 0 0
0 0 0
0 0 0
-0.000485412 0.000439435 0
-0.00146684 0.000978665 0
-0.00308879 0.00150557 0
-0.00549574 0.00190802 0
-0.00835049 0.00214546 0
-0.0113158 0.00217732 0
-0.0142711 0.00207967 0
-0.0170958 0.00192855 0
-0.0196852 0.00172346 0
-0.0219347 0.00146391 0
-0.0238078 0.00117089 0
-0.025268 0.000865407 0
-0.0262908 0.000548084 0
-0.0268515 0.000219539 0
-0.0269434 -0.000113982 0
-0.0265597 -0.000446234 0
-0.0257154 -0.000766298 0
-0.0244256 -0.00106325 0
-0.0227302 -0.0013378 0
-0.0206692 -0.00159063 0
-0.0182922 -0.00179593 0
-0.0156491 -0.00192786 0
-0.0128578 -0.00200002 0
-0.0100364 -0.00202596 0
-0.00727693 -0.00193954 0
-0.00467153 -0.00167459 0
-0.00251982 -0.001274 0
-0.00112146 -0.000780665 0
-0.000330247 -0.000315646 0
0 0 0
0 0 0
-0.000730909 0.00112772 0
-0.00308728 0.00277981 0
-0.00675898 0.00441594 0
-0.0114359 0.00549579 0
-0.0167077 0.00608348 0
-0.0221644 0.00624314 0
-0.0275591 0.00607062 0
-0.0326454 0.00566176 0
-0.0372826 0.0050678 0
-0.0413302 0.00433997 0
-0.0447148 0.0035135 0
-0.0473627 0.00262359 0
-0.0492225 0.00168219 0
-0.0502428 0.000701226 0
-0.0504104 -0.000296225 0
-0.0497121 -0.0012871 0
-0.0481726 -0.00224494 0
-0.0458161 -0.00314325 0
-0.0427191 -0.00396289 0
-0.038958 -0.00468471 0
-0.034641 -0.00527676 0
-0.0298763 -0.00570707 0
-0.0248211 -0.00593591 0
-0.0196328 -0.00592355 0
-0.0145567 -0.00561547 0
-0.00983835 -0.00495712 0
-0.00576736 -0.00389141 0
-0.00263351 -0.00236123 0
-0.000642486 -0.000889717 0
0 0 0
0 0 0
-0.00129959 0.00297352 0
-0.00511343 0.00639774 0
-0.0107092 0.00948472 0
-0.0173547 0.0114465 0
-0.0246353 0.0124605 0
-0.0321365 0.012704 0
-0.0395211 0.0123261 0
-0.046452 0.0114755 0
-0.0527706 0.0102649 0
-0.0583182 0.00880693 0
-0.0629785 0.00715127 0
-0.0666348 0.00534779 0
-0.0692122 0.00343035 0
-0.0706358 0.00143286 0
-0.0708847 -0.000598331 0
-0.0699383 -0.00261685 0
-0.0678308 -0.00457042 0
-0.0645966 -0.00640676 0
-0.0603414 -0.00807414 0
-0.0551706 -0.00952082 0
-0.0492519 -0.0107052 0
-0.0427524 -0.0115855 0
-0.0358483 -0.0120705 0
-0.0287157 -0.0120688 0
-0.0216995 -0.0115061 0
-0.0151446 -0.0103078 0
-0.0093179 -0.00834533 0
-0.00448655 -0.00548997 0
-0.00119807 -0.00246657 0
0 0 0
0 0 0
-0.00275457 0.00688547 0
-0.00779744 0.0128267 0
-0.0146382 0.0174655 0
-0.0227866 0.0204434 0
-0.0316967 0.021923 0
-0.040823 0.0220666 0
-0.0498142 0.0211992 0
-0.0583189 0.0196457 0
-0.0661276 0.0175468 0
-0.0730303 0.0150435 0
-0.0788564 0.0122076 0
-0.0834349 0.00911123 0
-0.0866766 0.00582063 0
-0.0884924 0.00240223 0
-0.0888504 -0.0010719 0
-0.0877191 -0.00452972 0
-0.0851494 -0.00787727 0
-0.0811923 -0.0110206 0
-0.0759716 -0.0138704 0
-0.0696111 -0.0163375 0
-0.0623301 -0.0183438 0
-0.0543481 -0.019811 0
-0.0458977 -0.0206666 0
-0.0372117 -0.0208378 0
-0.0285654 -0.0200896 0
-0.0202343 -0.0181868 0
-0.0127467 -0.0151288 0
-0.00663099 -0.0109152 0
-0.00225833 -0.00579058 0
0 0 0
0 0 0
-0.00387295 0.0112805 0
-0.0102058 0.0199779 0
-0.0184598 0.0262429 0
-0.0280961 0.0302266 0
-0.0384879 0.0321481 0
-0.0490087 0.0322269 0
-0.0593463 0.0309232 0
-0.069189 0.0286977 0
-0.0782709 0.0257023 0
-0.086326 0.0220891 0
-0.0931517 0.0179683 0
-0.0985452 0.0134505 0
-0.102395 0.00863298 0
-0.104589 0.0036131 0
-0.105078 -0.00149902 0
-0.103812 -0.00659328 0
-0.100852 -0.0115253 0
-0.0962591 -0.0161506 0
-0.0901816 -0.0203375 0
-0.0827676 -0.0239545 0
-0.0742759 -0.0268732 0
-0.0649653 -0.028965 0
-0.0551433 -0.0301935 0
-0.0451175 -0.0305218 0
-0.0350875 -0.029601 0
-0.0252527 -0.0270818 0
-0.0162583 -0.0229457 0
-0.00874946 -0.0171741 0
-0.00317906 -0.00958595 0
0 0 0
0 0 0
-0.00343186 0.0145756 0
-0.0114052 0.0257621 0
-0.0220879 0.0337016 0
-0.0336479 0.0385361 0
-0.0456049 0.0408133 0
-0.0574781 0.0410809 0
-0.0690256 0.0397313 0
-0.0800049 0.0371572 0
-0.0901175 0.0335205 0
-0.0990647 0.0289831 0
-0.106668 0.023719 0
-0.112748 0.0179022 0
-0.117146 0.0116474 0
-0.119702 0.00506924 0
-0.120338 -0.00166175 0
-0.118974 -0.0083751 0
-0.115662 -0.0148742 0
-0.110453 -0.0209625 0
-0.103543 -0.0264612 0
-0.0951286 -0.0311915 0
-0.0854895 -0.0349738 0
-0.0749059 -0.0376289 0
-0.063759 -0.0391204 0
-0.05243 -0.0394122 0
-0.0411987 -0.0382753 0
-0.0303447 -0.0354806 0
-0.0200571 -0.0304997 0
-0.0105246 -0.0228043 0
-0.00331602 -0.0125769 0
0 0 0
0 0 0
-0.00309797 0.0205044 0
-0.0121897 0.0351973 0
-0.0245647 0.0449396 0
-0.0375124 0.0505921 0
-0.0507681 0.0530746 0
-0.0640671 0.0533069 0
-0.0770599 0.0516133 0
-0.0893968 0.0483185 0
-0.100767 0.0436479 0
-0.110859 0.037827 0
-0.119483 0.0310603 0
-0.126452 0.0235521 0
-0.131561 0.0154381 0
-0.134604 0.0068539 0
-0.13548 -0.00196831 0
-0.134085 -0.0107962 0
-0.130458 -0.0193566 0
-0.124639 -0.027376 0
-0.116853 -0.034613 0
-0.107326 -0.0408262 0
-0.0963757 -0.045786 0
-0.0843187 -0.0492627 0
-0.0715996 -0.051164 0
-0.0586627 -0.0513972 0
-0.0460138 -0.0499168 0
-0.0341588 -0.0466771 0
-0.0228341 -0.0408356 0
-0.0117762 -0.0315499 0
-0.0033698 -0.0181585 0
0 0 0
0 0 0
-0.00453795 0.0328004 0
-0.0133537 0.0533011 0
-0.0249325 0.0650548 0
-0.0377598 0.0716147 0
-0.0516984 0.0740883 0
-0.0666113 0.0735831 0
-0.0816572 0.0705591 0
-0.0959948 0.0654762 0
-0.109318 0.0587316 0
-0.12132 0.0507225 0
-0.131677 0.0415928 0
-0.140066 0.031486 0
-0.146268 0.0205795 0
-0.150067 0.00905035 0
-0.151355 -0.00282688 0
-0.150024 -0.0147777 0
-0.146118 -0.0264048 0
-0.139682 -0.0373105 0
-0.130909 -0.0471646 0
-0.119993 -0.0556367 0
-0.10734 -0.0624497 0
-0.0933525 -0.0673266 0
-0.0785197 -0.0700406 0
-0.0633289 -0.0703649 0
-0.0486477 -0.0683297 0
-0.0353433 -0.0639652 0
-0.0232804 -0.056998 0
-0.0123237 -0.0471551 0
-0.004041 -0.0297259 0
0 0 0
0 0 0
-0.0052946 0.0422281 0
-0.0131225 0.0675315 0
-0.0234066 0.0814294 0
-0.0360697 0.089441 0
-0.0507011 0.092582 0
-0.0668901 0.0918679 0
-0.0835077 0.0879752 0
-0.0994249 0.0815803 0
-0.114316 0.0731931 0
-0.127855 0.0633236 0
-0.139609 0.052079 0
-0.149144 0.0395666 0
-0.156246 0.0260286 0
-0.160699 0.011707 0
-0.162397 -0.00307799 0
-0.161233 -0.018006 0
-0.157245 -0.0325775 0
-0.150467 -0.0462929 0
-0.141056 -0.0587149 0
-0.129162 -0.0694061 0
-0.115244 -0.0780272 0
-0.0997551 -0.0842389 0
-0.0832273 -0.087682 0
-0.0661913 -0.0879976 0
-0.0497415 -0.0851777 0
-0.0349724 -0.0792145 0
-0.0222427 -0.0705887 0
-0.0119106 -0.059781 0
-0.00436637 -0.0388864 0
0 0 0
0 0 0
-0.00291071 0.0395518 0
-0.00972148 0.0653468 0
-0.0202019 0.0814455 0
-0.0341216 0.091908 0
-0.0500816 0.0972831 0
-0.0666832 0.0981195 0
-0.0833019 0.0952684 0
-0.0993132 0.0895811 0
-0.114307 0.0814543 0
-0.127872 0.0712842 0
-0.139641 0.0592815 0
-0.149244 0.0456567 0
-0.15647 0.0307426 0
-0.161105 0.0148721 0
-0.163036 -0.00156217 0
-0.162153 -0.0181675 0
-0.158439 -0.0344336 0
-0.151883 -0.0498501 0
-0.14264 -0.0638628 0
-0.130868 -0.0759175 0
-0.116951 -0.0855804 0
-0.101274 -0.0924179 0
-0.0844306 -0.0960201 0
-0.0670121 -0.0959775 0
-0.0499362 -0.0921242 0
-0.0341205 -0.0842948 0
-0.0205676 -0.0732095 0
-0.0102801 -0.0595887 0
-0.00338265 -0.0372472 0
0 0 0
0 0 0
-0.00111942 0.0332264 0
-0.00761753 0.0582281 0
-0.0187163 0.0765266 0
-0.0336379 0.0896436 0
-0.0503099 0.0976556 0
-0.0666603 0.100639 0
-0.0826008 0.0994925 0
-0.098043 0.0951158 0
-0.112492 0.0877782 0
-0.125451 0.077749 0
-0.13666 0.0653976 0
-0.145857 0.051093 0
-0.152841 0.0352536 0
-0.157408 0.0182977 0
-0.159448 0.000688681 0
-0.158849 -0.0171097 0
-0.155562 -0.0346073 0
-0.149536 -0.0513138 0
-0.140919 -0.0665918 0
-0.129858 -0.0798036 0
-0.116628 -0.0903911 0
-0.101505 -0.0977959 0
-0.085105 -0.101564 0
-0.0680427 -0.101241 0
-0.0509786 -0.0964797 0
-0.0345727 -0.0869349 0
-0.0202962 -0.0732078 0
-0.00962044 -0.0559 0
-0.00277761 -0.0323759 0
0 0 0
0 0 0
-0.0036539 0.0317071 0
-0.0112775 0.0576563 0
-0.0223477 0.0780963 0
-0.036341 0.0932758 0
-0.051856 0.103163 0
-0.0674913 0.107727 0
-0.0829657 0.107701 0
-0.0979979 0.103822 0
-0.112072 0.0964282 0
-0.124672 0.0858627 0
-0.135555 0.0726243 0
-0.144475 0.0572124 0
-0.151259 0.0400938 0
-0.155731 0.0217356 0
-0.157804 0.00264263 0
-0.15739 -0.0166801 0
-0.154472 -0.0357328 0
-0.149035 -0.0540158 0
-0.141148 -0.0708852 0
-0.130882 -0.0856972 0
-0.118444 -0.0977409 0
-0.104044 -0.106305 0
-0.0882258 -0.110822 0
-0.0715343 -0.110723 0
-0.0546152 -0.105554 0
-0.0381141 -0.0948638 0
-0.0234696 -0.0789311 0
-0.0121201 -0.0580368 0
-0.00423901 -0.0318401 0
0 0 0
0 0 0
-0.00675311 0.0344139 0
-0.0158314 0.0632068 0
-0.0270235 0.0862109 0
-0.0401179 0.103258 0
-0.0545903 0.114454 0
-0.0699162 0.119904 0
-0.0854197 0.120212 0
-0.100425 0.115979 0
-0.114431 0.107719 0
-0.126938 0.0959446 0
-0.13771 0.0812528 0
-0.146509 0.0642416 0
-0.153198 0.0454049 0
-0.15764 0.0252365 0
-0.159774 0.00425216 0
-0.159541 -0.0170325 0
-0.156959 -0.0380916 0
-0.152049 -0.0583995 0
-0.144789 -0.077316 0
-0.135155 -0.0942008 0
-0.123292 -0.108203 0
-0.109342 -0.118472 0
-0.0937583 -0.124276 0
-0.0769965 -0.124885 0
-0.0597964 -0.119711 0
-0.0428979 -0.108167 0
-0.0275957 -0.0901908 0
-0.0151844 -0.0657221 0
-0.00590535 -0.035434 0
0 0 0
0 0 0
-0.00665604 0.0407668 0
-0.016409 0.0744548 0
-0.0286714 0.100926 0
-0.0428557 0.120044 0
-0.0583832 0.132176 0
-0.074675 0.137692 0
-0.0909861 0.137341 0
-0.106571 0.131871 0
-0.120952 0.121967 0
-0.133651 0.108314 0
-0.144509 0.0915739 0
-0.153369 0.0724076 0
-0.160133 0.0513288 0
-0.1647 0.0288513 0
-0.167027 0.00546975 0
-0.167068 -0.0183209 0
-0.164812 -0.0419654 0
-0.160248 -0.0649086 0
-0.1533 -0.086457 0
-0.143894 -0.105917 0
-0.132065 -0.122351 0
-0.11785 -0.134823 0
-0.101667 -0.142409 0
-0.0839389 -0.144188 0
-0.0654726 -0.139311 0
-0.0470771 -0.126928 0
-0.0301824 -0.106798 0
-0.0162188 -0.0786786 0
-0.00591513 -0.0429518 0
0 0 0
0 0 0
-0.00550142 0.0484062 0
-0.0156611 0.087763 0
-0.0292915 0.118057 0
-0.0452053 0.139275 0
-0.0624178 0.152123 0
-0.0799446 0.157307 0
-0.0970963 0.155842 0
-0.113184 0.148743 0
-0.127797 0.136875 0
-0.140525 0.121108 0
-0.151307 0.102147 0
-0.16008 0.0807009 0
-0.166803 0.0572965 0
-0.171432 0.0324605 0
-0.173938 0.00665122 0
-0.174287 -0.0196734 0
-0.172416 -0.0459516 0
-0.168261 -0.0716217 0
-0.161696 -0.0959324 0
-0.152594 -0.118132 0
-0.140877 -0.137222 0
-0.12647 -0.152201 0
-0.109732 -0.161915 0
-0.0910233 -0.165209 0
-0.0712004 -0.160909 0
-0.0511183 -0.14784 0
-0.0324275 -0.125547 0
-0.0167786 -0.093574 0
-0.00551991 -0.0517742 0
0 0 0
0 0 0
-0.00542797 0.0549723 0
-0.0162384 0.0994943 0
-0.030884 0.133417 0
-0.0478174 0.156593 0
-0.0658772 0.170087 0
-0.0839017 0.174966 0
-0.101182 0.172471 0
-0.11701 0.163842 0
-0.131127 0.15015 0
-0.143278 0.132462 0
-0.153458 0.111531 0
-0.161666 0.0881124 0
-0.167949 0.0627388 0
-0.172356 0.0359451 0
-0.174878 0.00815238 0
-0.17551 -0.0202181 0
-0.174155 -0.0486476 0
-0.170719 -0.0766174 0
-0.164988 -0.103367 0
-0.156749 -0.128134 0
-0.145842 -0.149851 0
-0.132104 -0.16745 0
-0.115729 -0.179488 0
-0.0969118 -0.184524 0
-0.0765364 -0.181059 0
-0.0554884 -0.167593 0
-0.0355289 -0.14323 0
-0.0184187 -0.107076 0
-0.00597126 -0.0592819 0
0 0 0
0 0 0
-0.00587564 0.061789 0
-0.0174622 0.111407 0
-0.0329456 0.148718 0
-0.0505116 0.173591 0
-0.0688699 0.187449 0
-0.0867298 0.191722 0
-0.10342 0.187945 0
-0.118269 0.177656 0
-0.13119 0.162103 0
-0.142094 0.142536 0
-0.151068 0.119765 0
-0.1582 0.0946018 0
-0.163636 0.0675648 0
-0.167522 0.0391715 0
-0.16989 0.00979313 0
-0.170769 -0.0201993 0
-0.170045 -0.0503649 0
-0.1676 -0.0802632 0
-0.163134 -0.109175 0
-0.156344 -0.136382 0
-0.146955 -0.16074 0
-0.134692 -0.181107 0
-0.11954 -0.19577 0
-0.101484 -0.203016 0
-0.081328 -0.200912 0
-0.059875 -0.187523 0
-0.0389948 -0.16141 0
-0.0205568 -0.121136 0
-0.00680915 -0.0671747 0
0 0 0
0 0 0
-0.00628435 0.07018 0
-0.0186536 0.125258 0
-0.0349729 0.165672 0
-0.0531073 0.191861 0
-0.0715046 0.205592 0
-0.0886125 0.208629 0
-0.103987 0.202984 0
-0.117182 0.190668 0
-0.128229 0.173048 0
-0.137158 0.151488 0
-0.144242 0.126884 0
-0.149754 0.100129 0
-0.153924 0.0716834 0
-0.156984 0.0420065 0
-0.159015 0.0113934 0
-0.160097 -0.0198613 0
-0.160097 -0.0514154 0
-0.158881 -0.0829267 0
-0.156087 -0.113774 0
-0.151358 -0.143338 0
-0.144213 -0.170391 0
-0.134174 -0.19371 0
-0.121043 -0.2114 0
-0.104621 -0.221566 0
-0.0854229 -0.221618 0
-0.0639657 -0.208965 0
-0.0423334 -0.181648 0
-0.0226103 -0.137706 0
-0.00757353 -0.0771526 0
0 0 0
0 0 0
-0.00672227 0.0795513 0
-0.0200043 0.140322 0
-0.037129 0.183513 0
-0.0553795 0.210328 0
-0.0731083 0.22313 0
-0.0886684 0.224284 0
-0.101854 0.216276 0
-0.112458 0.20159 0
-0.120709 0.181741 0
-0.126835 0.158243 0
-0.131309 0.132024 0
-0.134605 0.104012 0
-0.13704 0.0745885 0
-0.138932 0.0441324 0
-0.140415 0.0128356 0
-0.141624 -0.0191106 0
-0.142419 -0.0514882 0
-0.142663 -0.0840787 0
-0.141952 -0.116393 0
-0.139882 -0.147943 0
-0.135768 -0.177502 0
-0.128926 -0.203843 0
-0.118877 -0.224885 0
-0.105141 -0.238546 0
-0.0878989 -0.241561 0
-0.0673313 -0.230662 0
-0.0455571 -0.203061 0
-0.0246957 -0.15597 0
-0.00831918 -0.0885589 0
0 0 0
0 0 0
-0.00725756 0.0893087 0
-0.0217058 0.155872 0
-0.0395769 0.201477 0
-0.0571031 0.227913 0
-0.0730081 0.238682 0
-0.086016 0.237285 0
-0.0959935 0.226507 0
-0.102808 0.209131 0
-0.107094 0.186941 0
-0.109489 0.161724 0
-0.110598 0.134319 0
-0.111029 0.105569 0
-0.111208 0.0757738 0
-0.111558 0.0452316 0
-0.112257 0.0140025 0
-0.11348 -0.0178537 0
-0.115116 -0.0502728 0
-0.117051 -0.0831903 0
-0.118831 -0.116262 0
-0.120006 -0.149142 0
-0.119771 -0.180771 0
-0.117323 -0.210089 0
-0.111681 -0.234731 0
-0.101866 -0.252329 0
-0.0878339 -0.259124 0
-0.0695425 -0.251353 0
-0.0486787 -0.224766 0
-0.0269293 -0.17511 0
-0.00910089 -0.100737 0
0 0 0
0 0 0
-0.00814541 0.100095 0
-0.0234273 0.172006 0
-0.0413044 0.218851 0
-0.0572353 0.243749 0
-0.0702154 0.251399 0
-0.0792401 0.246502 0
-0.0845043 0.232311 0
-0.0862027 0.212083 0
-0.0853946 0.187733 0
-0.0831394 0.16118 0
-0.080152 0.133132 0
-0.0771477 0.104299 0
-0.0746361 0.0748691 0
-0.0731267 0.0450296 0
-0.0728269 0.0147 0
-0.0739438 -0.0162002 0
-0.0764065 -0.0477704 0
-0.0801442 -0.0801097 0
-0.084692 -0.113052 0
-0.0895847 -0.146432 0
-0.0939579 -0.179433 0
-0.0969468 -0.211238 0
-0.0970847 -0.239405 0
-0.092905 -0.261487 0
-0.0838312 -0.273079 0
-0.0692873 -0.269772 0
-0.0505592 -0.245688 0
-0.0289331 -0.194948 0
-0.0101623 -0.114177 0
0 0 0
0 0 0
-0.00964102 0.112553 0
-0.0248381 0.188821 0
-0.0412995 0.234921 0
-0.0547334 0.256967 0
-0.0637415 0.260436 0
-0.0669258 0.250804 0
-0.065484 0.232322 0
-0.0606138 0.209237 0
-0.0536196 0.183201 0
-0.0458057 0.155862 0
-0.0380122 0.127827 0
-0.0310792 0.0997015 0
-0.0255342 0.0715038 0
-0.0219049 0.0432516 0
-0.0204154 0.014734 0
-0.02129 -0.0142599 0
-0.0245076 -0.0439823 0
-0.0300469 -0.0746853 0
-0.0375039 -0.106439 0
-0.0464742 -0.139312 0
-0.056064 -0.17272 0
-0.0653793 -0.206079 0
-0.0727154 -0.237374 0
-0.0763676 -0.264592 0
-0.0744942 -0.282197 0
-0.0652535 -0.284651 0
-0.0500602 -0.264755 0
-0.0303292 -0.215305 0
-0.011747 -0.129366 0
0 0 0
0 0 0
-0.0105774 0.12536 0
-0.0255351 0.204885 0
-0.0397991 0.248265 0
-0.0482959 0.265189 0
-0.0503323 0.262627 0
-0.0452154 0.247551 0
-0.0351575 0.224848 0
-0.0223707 0.199408 0
-0.00829023 0.172451 0
0.00564881 0.145201 0
0.0185681 0.118108 0
0.0295894 0.0916214 0
0.0382387 0.0655799 0
0.0440418 0.0398202 0
0.0467834 0.0140222 0
0.046248 -0.0121346 0
0.0424046 -0.0390268 0
0.0352219 -0.0670312 0
0.0249775 -0.0964504 0
0.0119492 -0.127587 0
-0.0030493 -0.16013 0
-0.0192043 -0.193768 0
-0.0347851 -0.227144 0
-0.0480608 -0.258901 0
-0.0559935 -0.282904 0
-0.0555455 -0.29302 0
-0.0469606 -0.279944 0
-0.0304825 -0.23437 0
-0.0126495 -0.144866 0
0 0 0
0 0 0
-0.00978776 0.137193 0
-0.025115 0.218764 0
-0.0370402 0.257463 0
-0.0366215 0.266037 0
-0.0267336 0.254809 0
-0.0102514 0.2341 0
0.0102505 0.208202 0
0.032197 0.181408 0
0.0540724 0.154592 0
0.0743608 0.12863 0
0.0923359 0.10368 0
0.107272 0.0799051 0
0.118824 0.0569991 0
0.126647 0.0346578 0
0.130575 0.0124824 0
0.130438 -0.009926 0
0.126154 -0.0330222 0
0.117643 -0.0572613 0
0.104997 -0.0831169 0
0.0883091 -0.111063 0
0.0681263 -0.141158 0
0.0449943 -0.173463 0
0.0204947 -0.207219 0
-0.00379119 -0.241668 0
-0.0244999 -0.271626 0
-0.038268 -0.291908 0
-0.0410394 -0.289235 0
-0.0287579 -0.250331 0
-0.0116645 -0.159238 0
0 0 0
0 0 0
-0.00907234 0.15071 0
-0.0199812 0.229153 0
-0.0230153 0.256554 0
-0.00846335 0.254138 0
0.0169893 0.234216 0
0.0466573 0.2091 0
0.0781602 0.181803 0
0.109117 0.155338 0
0.13817 0.130214 0
0.16396 0.106936 0
0.186067 0.0853438 0
0.204071 0.0652737 0
0.217817 0.0463358 0
0.22715 0.0281397 0
0.231976 0.0102558 0
0.232203 -0.00774576 0
0.227709 -0.0263421 0
0.218371 -0.0460103 0
0.204081 -0.0673049 0
0.184731 -0.0907803 0
0.160471 -0.11686 0
0.131451 -0.145968 0
0.098844 -0.17789 0
0.0638226 -0.212408 0
0.0292515 -0.246158 0
-0.0020046 -0.275772 0
-0.0215055 -0.285775 0
-0.0208111 -0.260689 0
-0.0102123 -0.174202 0
0 0 0
0 0 0
-0.0102316 0.168568 0
-0.0065367 0.234745 0
0.0122829 0.239578 0
0.0474253 0.224117 0
0.0907713 0.198085 0
0.134202 0.171202 0
0.175992 0.145073 0
0.214419 0.121301 0
0.248705 0.0999073 0
0.278077 0.0809107 0
0.302538 0.0638961 0
0.322092 0.0484482 0
0.336817 0.0341643 0
0.346787 0.0206416 0
0.352004 0.00748392 0
0.352468 -0.00570538 0
0.348035 -0.0193597 0
0.338561 -0.0339127 0
0.323759 -0.0498812 0
0.303342 -0.0677826 0
0.276995 -0.0882938 0
0.244401 -0.112092 0
0.205983 -0.139448 0
0.162162 -0.170635 0
0.114525 -0.204296 0
0.064661 -0.239073 0
0.0224323 -0.26271 0
-0.00229759 -0.262949 0
-0.00971348 -0.191482 0
0 0 0
0 0 0
0.0118769 0.164932 0
0.0464945 0.213245 0
0.0961406 0.198744 0
0.153103 0.175233 0
0.211259 0.148392 0
0.264487 0.123901 0
0.312197 0.102106 0
0.353801 0.0833558 0
0.389363 0.0673242 0
0.418946 0.0536861 0
0.442969 0.0419066 0
0.461851 0.0314513 0
0.475869 0.02198 0
0.485299 0.0131528 0
0.490226 0.00465706 0
0.490733 -0.00381981 0
0.486674 -0.0126164 0
0.477904 -0.0220713 0
0.46402 -0.0325781 0
0.444624 -0.0445301 0
0.419015 -0.0586789 0
0.386495 -0.0757756 0
0.346586 -0.0963522 0
0.29881 -0.12094 0
0.243093 -0.149804 0
0.179365 -0.183209 0
0.114768 -0.214017 0
0.0564417 -0.235092 0
0.0147362 -0.184424 0
0 0 0
2.77334e-30 0 0
0.0823955 0.113963 0
0.170388 0.142359 0
0.255844 0.126261 0
0.330629 0.106743 0
0.395101 0.0871161 0
0.449618 0.0706916 0
0.495225 0.0569972 0
0.532965 0.0455611 0
0.563827 0.0361164 0
0.588801 0.0283965 0
0.608582 0.021945 0
0.623863 0.0163058 0
0.635019 0.0112784 0
0.642423 0.00666237 0
0.646207 0.00226564 0
0.646498 -0.00210396 0
0.643168 -0.00665329 0
0.63609 -0.0115892 0
0.624857 -0.0171274 0
0.609059 -0.0234834 0
0.587851 -0.0312361 0
0.560384 -0.0409646 0
0.525327 -0.0530609 0
0.481348 -0.0679173 0
0.426728 -0.0864509 0
0.359746 -0.109579 0
0.279494 -0.133672 0
0.185066 -0.155101 0
0.0880411 -0.126374 0
2.77334e-30 0 0
0.25 0 0
0.359158 0.0481553 0
0.457454 0.0589792 0
0.540697 0.050541 0
0.604697 0.0409101 0
0.654085 0.0318033 0
0.693491 0.0249372 0
0.724639 0.0196578 0
0.749251 0.0153111 0
0.768554 0.0118272 0
0.783775 0.00913632 0
0.795538 0.00698487 0
0.804467 0.00511942 0
0.810864 0.00347865 0
0.815033 0.0020012 0
0.817085 0.000612384 0
0.81713 -0.000762473 0
0.815087 -0.00220347 0
0.810872 -0.00379068 0
0.804204 -0.00558332 0
0.794801 -0.00764058 0
0.78201 -0.0102487 0
0.765181 -0.0136941 0
0.7429 -0.0181011 0
0.713753 -0.0235943 0
0.67563 -0.0309458 0
0.626418 -0.0409277 0
0.560081 -0.0521684 0
0.470583 -0.0632962 0
0.364897 -0.0530078 0
0.25 0 0
1 0 0
1 0 0
1 0 0
1 0 0
1 0 0
1 0 0
1 0 0
1 0 0
1 0 0
1 0 0
1 0 0
1 0 0
1 0 0
1 0 0
1 0 0
1 0 0
1 0 0
1 0 0
1 0 0
1 0 0
1 0 0
1 0 0
1 0 0
1 0 0
1 0 0
1 0 0
1 0 0
1 0 0
1 0 0
1 0 0
1 0 0
      </DataArray> 
      <DataArray type="Float64" NumberOfComponents="3" Name="Real Velocity" format="ascii">
0 0 0
0 0 0
0 0 0
0 0 0
0 0 0
0 0 0
0 0 0