<?xml version="1.0"?>
<VTKFile type="UnstructuredGrid">
  <UnstructuredGrid>
  <Piece NumberOfPoints="5265"  NumberOfCells="1280">
    <Points>
      <DataArray type="Float64" NumberOfComponents="3" format="ascii">
0 0 0
0.25 0 0
0.5 0 0
0.75 0 0
1 0 0
1.25 0 0
1.5 0 0
1.75 0 0
2 0 0
2.25 0 0
2.5 0 0
2.75 0 0
3 0 0
3.25 0 0
3.5 0 0
3.75 0 0
4 0 0
4.25 0 0
4.5 0 0
4.75 0 0
5 0 0
5.25 0 0
5.5 0 0
5.75 0 0
6 0 0
6.25 0 0
6.5 0 0
6.75 0 0
7 0 0
7.25 0 0
7.5 0 0
7.75 0 0
8 0 0
8.25 0 0
8.5 0 0
8.75 0 0
9 0 0
9.25 0 0
9.5 0 0
9.75 0 0
10 0 0
10.25 0 0
10.5 0 0
10.75 0 0
11 0 0
11.25 0 0
11.5 0 0
11.75 0 0
12 0 0
12.25 0 0
12.5 0 0
12.75 0 0
13 0 0
13.25 0 0
13.5 0 0
13.75 0 0
14 0 0
14.25 0 0
14.5 0 0
14.75 0 0
15 0 0
15.25 0 0
15.5 0 0
15.75 0 0
16 0 0
16.25 0 0
16.5 0 0
16.75 0 0
17 0 0
17.25 0 0
17.5 0 0
17.75 0 0
18 0 0
18.25 0 0
18.5 0 0
18.75 0 0
19 0 0
19.25 0 0
19.5 0 0
19.75 0 0
20 0 0
0 0.25 0
0.25 0.25 0
0.5 0.25 0
0.75 0.25 0
1 0.25 0
1.25 0.25 0
1.5 0.25 0
1.75 0.25 0
2 0.25 0
2.25 0.25 0
2.5 0.25 0
2.75 0.25 0
3 0.25 0
3.25 0.25 0
3.5 0.25 0
3.75 0.25 0
4 0.25 0
4.25 0.25 0
4.5 0.25 0
4.75 0.25 0
5 0.25 0
5.25 0.25 0
5.5 0.25 0
5.75 0.25 0
6 0.25 0
6.25 0.25 0
6.5 0.25 0
6.75 0.25 0
7 0.25 0
7.25 0.25 0
7.5 0.25 0
7.75 0.25 0
8 0.25 0
8.25 0.25 0
8.5 0.25 0
8.75 0.25 0
9 0.25 0
9.25 0.25 0
9.5 0.25 0
9.75 0.25 0
10 0.25 0
10.25 0.25 0
10.5 0.25 0
10.75 0.25 0
11 0.25 0
11.25 0.25 0
11.5 0.25 0
11.75 0.25 0
12 0.25 0
12.25 0.25 0
12.5 0.25 0
12.75 0.25 0
13 0.25 0
13.25 0.25 0
13.5 0.25 0
13.75 0.25 0
14 0.25 0
14.25 0.25 0
14.5 0.25 0
14.75 0.25 0
15 0.25 0
15.25 0.25 0
15.5 0.25 0
15.75 0.25 0
16 0.25 0
16.25 0.25 0
16.5 0.25 0
16.75 0.25 0
17 0.25 0
17.25 0.25 0
17.5 0.25 0
17.75 0.25 0
18 0.25 0
18.25 0.25 0
18.5 0.25 0
18.75 0.25 0
19 0.25 0
19.25 0.25 0
19.5 0.25 0
19.75 0.25 0
20 0.25 0
0 0.5 0
0.25 0.5 0
0.5 0.5 0
0.75 0.5 0
1 0.5 0
1.25 0.5 0
1.5 0.5 0
1.75 0.5 0
2 0.5 0
2.25 0.5 0
2.5 0.5 0
2.75 0.5 0
3 0.5 0
3.25 0.5 0
3.5 0.5 0
3.75 0.5 0
4 0.5 0
4.25 0.5 0
4.5 0.5 0
4.75 0.5 0
5 0.5 0
5.25 0.5 0
5.5 0.5 0
5.75 0.5 0
6 0.5 0
6.25 0.5 0
6.5 0.5 0
6.75 0.5 0
7 0.5 0
7.25 0.5 0
7.5 0.5 0
7.75 0.5 0
8 0.5 0
8.25 0.5 0
8.5 0.5 0
8.75 0.5 0
9 0.5 0
9.25 0.5 0
9.5 0.5 0
9.75 0.5 0
10 0.5 0
10.25 0.5 0
10.5 0.5 0
10.75 0.5 0
11 0.5 0
11.25 0.5 0
11.5 0.5 0
11.75 0.5 0
12 0.5 0
12.25 0.5 0
12.5 0.5 0
12.75 0.5 0
13 0.5 0
13.25 0.5 0
13.5 0.5 0
13.75 0.5 0
14 0.5 0
14.25 0.5 0
14.5 0.5 0
14.75 0.5 0
15 0.5 0
15.25 0.5 0
15.5 0.5 0
15.75 0.5 0
16 0.5 0
16.25 0.5 0
16.5 0.5 0
16.75 0.5 0
17 0.5 0
17.25 0.5 0
17.5 0.5 0
17.75 0.5 0
18 0.5 0
18.25 0.5 0
18.5 0.5 0
18.75 0.5 0
19 0.5 0
19.25 0.5 0
19.5 0.5 0
19.75 0.5 0
20 0.5 0
0 0.75 0
0.25 0.75 0
0.5 0.75 0
0.75 0.75 0
1 0.75 0
1.25 0.75 0
1.5 0.75 0
1.75 0.75 0
2 0.75 0
2.25 0.75 0
2.5 0.75 0
2.75 0.75 0
3 0.75 0
3.25 0.75 0
3.5 0.75 0
3.75 0.75 0
4 0.75 0
4.25 0.75 0
4.5 0.75 0
4.75 0.75 0
5 0.75 0
5.25 0.75 0
5.5 0.75 0
5.75 0.75 0
6 0.75 0
6.25 0.75 0
6.5 0.75 0
6.75 0.75 0
7 0.75 0
7.25 0.75 0
7.5 0.75 0
7.75 0.75 0
8 0.75 0
8.25 0.75 0
8.5 0.75 0
8.75 0.75 0
9 0.75 0
9.25 0.75 0
9.5 0.75 0
9.75 0.75 0
10 0.75 0
10.25 0.75 0
10.5 0.75 0
10.75 0.75 0
11 0.75 0
11.25 0.75 0
11.5 0.75 0
11.75 0.75 0
12 0.75 0
12.25 0.75 0
12.5 0.75 0
12.75 0.75 0
13 0.75 0
13.25 0.75 0
13.5 0.75 0
13.75 0.75 0
14 0.75 0
14.25 0.75 0
14.5 0.75 0
14.75 0.75 0
15 0.75 0
15.25 0.75 0
15.5 0.75 0
15.75 0.75 0
16 0.75 0
16.25 0.75 0
16.5 0.75 0
16.75 0.75 0
17 0.75 0
17.25 0.75 0
17.5 0.75 0
17.75 0.75 0
18 0.75 0
18.25 0.75 0
18.5 0.75 0
18.75 0.75 0
19 0.75 0
19.25 0.75 0
19.5 0.75 0
19.75 0.75 0
20 0.75 0
0 1 0
0.25 1 0
0.5 1 0
0.75 1 0
1 1 0
1.25 1 0
1.5 1 0
1.75 1 0
2 1 0
2.25 1 0
2.5 1 0
2.75 1 0
3 1 0
3.25 1 0
3.5 1 0
3.75 1 0
4 1 0
4.25 1 0
4.5 1 0
4.75 1 0
5 1 0
5.25 1 0
5.5 1 0
5.75 1 0
6 1 0
6.25 1 0
6.5 1 0
6.75 1 0
7 1 0
7.25 1 0
7.5 1 0
7.75 1 0
8 1 0
8.25 1 0
8.5 1 0
8.75 1 0
9 1 0
9.25 1 0
9.5 1 0
9.75 1 0
10 1 0
10.25 1 0
10.5 1 0
10.75 1 0
11 1 0
11.25 1 0
11.5 1 0
11.75 1 0
12 1 0
12.25 1 0
12.5 1 0
12.75 1 0
13 1 0
13.25 1 0
13.5 1 0
13.75 1 0
14 1 0
14.25 1 0
14.5 1 0
14.75 1 0
15 1 0
15.25 1 0
15.5 1 0
15.75 1 0
16 1 0
16.25 1 0
16.5 1 0
16.75 1 0
17 1 0
17.25 1 0
17.5 1 0
17.75 1 0
18 1 0
18.25 1 0
18.5 1 0
18.75 1 0
19 1 0
19.25 1 0
19.5 1 0
19.75 1 0
20 1 0
0 1.25 0
0.25 1.25 0
0.5 1.25 0
0.75 1.25 0
1 1.25 0
1.25 1.25 0
1.5 1.25 0
1.75 1.25 0
2 1.25 0
2.25 1.25 0
2.5 1.25 0
2.75 1.25 0
3 1.25 0
3.25 1.25 0
3.5 1.25 0
3.75 1.25 0
4 1.25 0
4.25 1.25 0
4.5 1.25 0
4.75 1.25 0
5 1.25 0
5.25 1.25 0
5.5 1.25 0
5.75 1.25 0
6 1.25 0
6.25 1.25 0
6.5 1.25 0
6.75 1.25 0
7 1.25 0
7.25 1.25 0
7.5 1.25 0
7.75 1.25 0
8 1.25 0
8.25 1.25 0
8.5 1.25 0
8.75 1.25 0
9 1.25 0
9.25 1.25 0
9.5 1.25 0
9.75 1.25 0
10 1.25 0
10.25 1.25 0
10.5 1.25 0
10.75 1.25 0
11 1.25 0
11.25 1.25 0
11.5 1.25 0
11.75 1.25 0
12 1.25 0
12.25 1.25 0
12.5 1.25 0
12.75 1.25 0
13 1.25 0
13.25 1.25 0
13.5 1.25 0
13.75 1.25 0
14 1.25 0
14.25 1.25 0
14.5 1.25 0
14.75 1.25 0
15 1.25 0
15.25 1.25 0
15.5 1.25 0
15.75 1.25 0
16 1.25 0
16.25 1.25 0
16.5 1.25 0
16.75 1.25 0
17 1.25 0
17.25 1.25 0
17.5 1.25 0
17.75 1.25 0
18 1.25 0
18.25 1.25 0
18.5 1.25 0
18.75 1.25 0
19 1.25 0
19.25 1.25 0
19.5 1.25 0
19.75 1.25 0
20 1.25 0
0 1.5 0
0.25 1.5 0
0.5 1.5 0
0.75 1.5 0
1 1.5 0
1.25 1.5 0
1.5 1.5 0
1.75 1.5 0
2 1.5 0
2.25 1.5 0
2.5 1.5 0
2.75 1.5 0
3 1.5 0
3.25 1.5 0
3.5 1.5 0
3.75 1.5 0
4 1.5 0
4.25 1.5 0
4.5 1.5 0
4.75 1.5 0
5 1.5 0
5.25 1.5 0
5.5 1.5 0
5.75 1.5 0
6 1.5 0
6.25 1.5 0
6.5 1.5 0
6.75 1.5 0
7 1.5 0
7.25 1.5 0
7.5 1.5 0
7.75 1.5 0
8 1.5 0
8.25 1.5 0
8.5 1.5 0
8.75 1.5 0
9 1.5 0
9.25 1.5 0
9.5 1.5 0
9.75 1.5 0
10 1.5 0
10.25 1.5 0
10.5 1.5 0
10.75 1.5 0
11 1.5 0
11.25 1.5 0
11.5 1.5 0
11.75 1.5 0
12 1.5 0
12.25 1.5 0
12.5 1.5 0
12.75 1.5 0
13 1.5 0
13.25 1.5 0
13.5 1.5 0
13.75 1.5 0
14 1.5 0
14.25 1.5 0
14.5 1.5 0
14.75 1.5 0
15 1.5 0
15.25 1.5 0
15.5 1.5 0
15.75 1.5 0
16 1.5 0
16.25 1.5 0
16.5 1.5 0
16.75 1.5 0
17 1.5 0
17.25 1.5 0
17.5 1.5 0
17.75 1.5 0
18 1.5 0
18.25 1.5 0
18.5 1.5 0
18.75 1.5 0
19 1.5 0
19.25 1.5 0
19.5 1.5 0
19.75 1.5 0
20 1.5 0
0 1.75 0
0.25 1.75 0
0.5 1.75 0
0.75 1.75 0
1 1.75 0
1.25 1.75 0
1.5 1.75 0
1.75 1.75 0
2 1.75 0
2.25 1.75 0
2.5 1.75 0
2.75 1.75 0
3 1.75 0
3.25 1.75 0
3.5 1.75 0
3.75 1.75 0
4 1.75 0
4.25 1.75 0
4.5 1.75 0
4.75 1.75 0
5 1.75 0
5.25 1.75 0
5.5 1.75 0
5.75 1.75 0
6 1.75 0
6.25 1.75 0
6.5 1.75 0
6.75 1.75 0
7 1.75 0
7.25 1.75 0
7.5 1.75 0
7.75 1.75 0
8 1.75 0
8.25 1.75 0
8.5 1.75 0
8.75 1.75 0
9 1.75 0
9.25 1.75 0
9.5 1.75 0
9.75 1.75 0
10 1.75 0
10.25 1.75 0
10.5 1.75 0
10.75 1.75 0
11 1.75 0
11.25 1.75 0
11.5 1.75 0
11.75 1.75 0
12 1.75 0
12.25 1.75 0
12.5 1.75 0
12.75 1.75 0
13 1.75 0
13.25 1.75 0
13.5 1.75 0
13.75 1.75 0
14 1.75 0
14.25 1.75 0
14.5 1.75 0
14.75 1.75 0
15 1.75 0
15.25 1.75 0
15.5 1.75 0
15.75 1.75 0
16 1.75 0
16.25 1.75 0
16.5 1.75 0
16.75 1.75 0
17 1.75 0
17.25 1.75 0
17.5 1.75 0
17.75 1.75 0
18 1.75 0
18.25 1.75 0
18.5 1.75 0
18.75 1.75 0
19 1.75 0
19.25 1.75 0
19.5 1.75 0
19.75 1.75 0
20 1.75 0
0 2 0
0.25 2 0
0.5 2 0
0.75 2 0
1 2 0
1.25 2 0
1.5 2 0
1.75 2 0
2 2 0
2.25 2 0
2.5 2 0
2.75 2 0
3 2 0
3.25 2 0
3.5 2 0
3.75 2 0
4 2 0
4.25 2 0
4.5 2 0
4.75 2 0
5 2 0
5.25 2 0
5.5 2 0
5.75 2 0
6 2 0
6.25 2 0
6.5 2 0
6.75 2 0
7 2 0
7.25 2 0
7.5 2 0
7.75 2 0
8 2 0
8.25 2 0
8.5 2 0
8.75 2 0
9 2 0
9.25 2 0
9.5 2 0
9.75 2 0
10 2 0
10.25 2 0
10.5 2 0
10.75 2 0
11 2 0
11.25 2 0
11.5 2 0
11.75 2 0
12 2 0
12.25 2 0
12.5 2 0
12.75 2 0
13 2 0
13.25 2 0
13.5 2 0
13.75 2 0
14 2 0
14.25 2 0
14.5 2 0
14.75 2 0
15 2 0
15.25 2 0
15.5 2 0
15.75 2 0
16 2 0
16.25 2 0
16.5 2 0
16.75 2 0
17 2 0
17.25 2 0
17.5 2 0
17.75 2 0
18 2 0
18.25 2 0
18.5 2 0
18.75 2 0
19 2 0
19.25 2 0
19.5 2 0
19.75 2 0
20 2 0
0 2.25 0
0.25 2.25 0
0.5 2.25 0
0.75 2.25 0
1 2.25 0
1.25 2.25 0
1.5 2.25 0
1.75 2.25 0
2 2.25 0
2.25 2.25 0
2.5 2.25 0
2.75 2.25 0
3 2.25 0
3.25 2.25 0
3.5 2.25 0
3.75 2.25 0
4 2.25 0
4.25 2.25 0
4.5 2.25 0
4.75 2.25 0
5 2.25 0
5.25 2.25 0
5.5 2.25 0
5.75 2.25 0
6 2.25 0
6.25 2.25 0
6.5 2.25 0
6.75 2.25 0
7 2.25 0
7.25 2.25 0
7.5 2.25 0
7.75 2.25 0
8 2.25 0
8.25 2.25 0
8.5 2.25 0
8.75 2.25 0
9 2.25 0
9.25 2.25 0
9.5 2.25 0
9.75 2.25 0
10 2.25 0
10.25 2.25 0
10.5 2.25 0
10.75 2.25 0
11 2.25 0
11.25 2.25 0
11.5 2.25 0
11.75 2.25 0
12 2.25 0
12.25 2.25 0
12.5 2.25 0
12.75 2.25 0
13 2.25 0
13.25 2.25 0
13.5 2.25 0
13.75 2.25 0
14 2.25 0
14.25 2.25 0
14.5 2.25 0
14.75 2.25 0
15 2.25 0
15.25 2.25 0
15.5 2.25 0
15.75 2.25 0
16 2.25 0
16.25 2.25 0
16.5 2.25 0
16.75 2.25 0
17 2.25 0
17.25 2.25 0
17.5 2.25 0
17.75 2.25 0
18 2.25 0
18.25 2.25 0
18.5 2.25 0
18.75 2.25 0
19 2.25 0
19.25 2.25 0
19.5 2.25 0
19.75 2.25 0
20 2.25 0
0 2.5 0
0.25 2.5 0
0.5 2.5 0
0.75 2.5 0
1 2.5 0
1.25 2.5 0
1.5 2.5 0
1.75 2.5 0
2 2.5 0
2.25 2.5 0
2.5 2.5 0
2.75 2.5 0
3 2.5 0
3.25 2.5 0
3.5 2.5 0
3.75 2.5 0
4 2.5 0
4.25 2.5 0
4.5 2.5 0
4.75 2.5 0
5 2.5 0
5.25 2.5 0
5.5 2.5 0
5.75 2.5 0
6 2.5 0
6.25 2.5 0
6.5 2.5 0
6.75 2.5 0
7 2.5 0
7.25 2.5 0
7.5 2.5 0
7.75 2.5 0
8 2.5 0
8.25 2.5 0
8.5 2.5 0
8.75 2.5 0
9 2.5 0
9.25 2.5 0
9.5 2.5 0
9.75 2.5 0
10 2.5 0
10.25 2.5 0
10.5 2.5 0
10.75 2.5 0
11 2.5 0
11.25 2.5 0
11.5 2.5 0
11.75 2.5 0
12 2.5 0
12.25 2.5 0
12.5 2.5 0
12.75 2.5 0
13 2.5 0
13.25 2.5 0
13.5 2.5 0
13.75 2.5 0
14 2.5 0
14.25 2.5 0
14.5 2.5 0
14.75 2.5 0
15 2.5 0
15.25 2.5 0
15.5 2.5 0
15.75 2.5 0
16 2.5 0
16.25 2.5 0
16.5 2.5 0
16.75 2.5 0
17 2.5 0
17.25 2.5 0
17.5 2.5 0
17.75 2.5 0
18 2.5 0
18.25 2.5 0
18.5 2.5 0
18.75 2.5 0
19 2.5 0
19.25 2.5 0
19.5 2.5 0
19.75 2.5 0
20 2.5 0
0 2.75 0
0.25 2.75 0
0.5 2.75 0
0.75 2.75 0
1 2.75 0
1.25 2.75 0
1.5 2.75 0
1.75 2.75 0
2 2.75 0
2.25 2.75 0
2.5 2.75 0
2.75 2.75 0
3 2.75 0
3.25 2.75 0
3.5 2.75 0
3.75 2.75 0
4 2.75 0
4.25 2.75 0
4.5 2.75 0
4.75 2.75 0
5 2.75 0
5.25 2.75 0
5.5 2.75 0
5.75 2.75 0
6 2.75 0
6.25 2.75 0
6.5 2.75 0
6.75 2.75 0
7 2.75 0
7.25 2.75 0
7.5 2.75 0
7.75 2.75 0
8 2.75 0
8.25 2.75 0
8.5 2.75 0
8.75 2.75 0
9 2.75 0
9.25 2.75 0
9.5 2.75 0
9.75 2.75 0
10 2.75 0
10.25 2.75 0
10.5 2.75 0
10.75 2.75 0
11 2.75 0
11.25 2.75 0
11.5 2.75 0
[...]
    <PointData>
      <DataArray type="Float64" NumberOfComponents="3" Name="Velocity" format="ascii">
1 0 0
1.00001 0 0
1.00012 0 0
1.00032 0 0
1.00059 0 0
1.00091 0 0
1.00122 0 0
1.00153 0 0
1.00185 0 0
1.00217 0 0
1.00251 0 0
1.00286 0 0
1.00321 0 0
1.00358 0 0
1.00396 0 0
1.00435 0 0
1.00475 0 0
1.00516 0 0
1.00558 0 0
1.006 0 0
1.00642 0 0
1.00685 0 0
1.00727 0 0
1.00768 0 0
1.00808 0 0
1.00847 0 0
1.00884 0 0
1.00918 0 0
1.00949 0 0
1.00976 0 0
1.00999 0 0
1.01018 0 0
1.01033 0 0
1.01042 0 0
1.01046 0 0
1.01045 0 0
1.01039 0 0
1.01028 0 0
1.01013 0 0
1.00993 0 0
1.00969 0 0
1.00941 0 0
1.0091 0 0
1.00876 0 0
1.0084 0 0
1.00803 0 0
1.00764 0 0
1.00725 0 0
1.00686 0 0
1.00646 0 0
1.00608 0 0
1.0057 0 0
1.00533 0 0
1.00497 0 0
1.00463 0 0
1.0043 0 0
1.00398 0 0
1.00369 0 0
1.00341 0 0
1.00314 0 0
1.0029 0 0
1.00267 0 0
1.00246 0 0
1.00226 0 0
1.00208 0 0
1.00192 0 0
1.00176 0 0
1.00163 0 0
1.0015 0 0
1.00138 0 0
1.00128 0 0
1.00119 0 0
1.0011 0 0
1.00103 0 0
1.00096 0 0
1.00091 0 0
1.00086 0 0
1.00082 0 0
1.00078 0 0
1.00076 0 0
1.00074 0 0
1 0 0
1.00001 -4.57324e-05 0
1.00012 -0.000149575 0
1.00032 -0.000253655 0
1.00059 -0.000300101 0
1.00091 -0.000311729 0
1.00122 -0.00031136 0
1.00153 -0.000310213 0
1.00184 -0.000319509 0
1.00217 -0.000332421 0
1.0025 -0.000342121 0
1.00285 -0.000351118 0
1.00321 -0.00036192 0
1.00357 -0.000373495 0
1.00395 -0.00038481 0
1.00434 -0.000395478 0
1.00474 -0.000405112 0
1.00515 -0.000413388 0
1.00557 -0.000419984 0
1.00599 -0.000424343 0
1.00642 -0.000425909 0
1.00685 -0.000424464 0
1.00727 -0.00041979 0
1.00769 -0.000411051 0
1.0081 -0.000397416 0
1.00849 -0.000378567 0
1.00885 -0.000354191 0
1.00919 -0.00032482 0
1.0095 -0.000290988 0
1.00978 -0.000253435 0
1.01001 -0.0002129 0
1.01021 -0.000168712 0
1.01035 -0.000120203 0
1.01045 -6.88436e-05 0
1.01049 -1.61034e-05 0
1.01048 3.61896e-05 0
1.01042 8.62075e-05 0
1.01031 0.000133654 0
1.01015 0.000178232 0
1.00994 0.000220198 0
1.0097 0.000259807 0
1.00942 0.000295387 0
1.00911 0.000325267 0
1.00878 0.000349484 0
1.00842 0.000368075 0
1.00804 0.000381634 0
1.00765 0.000390757 0
1.00726 0.000395552 0
1.00686 0.000396127 0
1.00646 0.000392788 0
1.00607 0.000385842 0
1.00569 0.00037614 0
1.00532 0.000364528 0
1.00496 0.000351284 0
1.00461 0.000336684 0
1.00428 0.000320978 0
1.00397 0.000304416 0
1.00367 0.000287356 0
1.0034 0.000270153 0
1.00313 0.000253011 0
1.00289 0.000236136 0
1.00266 0.00021963 0
1.00245 0.000203596 0
1.00226 0.000188119 0
1.00208 0.000173286 0
1.00191 0.000159121 0
1.00176 0.000145649 0
1.00162 0.000132864 0
1.00149 0.000120762 0
1.00138 0.000109317 0
1.00127 9.84974e-05 0
1.00118 8.82789e-05 0
1.0011 7.86347e-05 0
1.00102 6.95011e-05 0
1.00096 6.08145e-05 0
1.0009 5.25544e-05 0
1.00085 4.47004e-05 0
1.00081 3.71615e-05 0
1.00078 2.9847e-05 0
1.00075 2.27753e-05 0
1.00073 1.5965e-05 0
1 0 0
1.00001 -9.13205e-05 0
1.00012 -0.000298447 0
1.00031 -0.000506012 0
1.00059 -0.000598649 0
1.0009 -0.000621903 0
1.00121 -0.000621321 0
1.00151 -0.000619223 0
1.00183 -0.000637927 0
1.00215 -0.00066387 0
1.00249 -0.00068349 0
1.00283 -0.000701759 0
1.00319 -0.000723653 0
1.00356 -0.000747133 0
1.00394 -0.000770159 0
1.00433 -0.000791906 0
1.00473 -0.000811546 0
1.00514 -0.000828643 0
1.00556 -0.000842758 0
1.00599 -0.000852507 0
1.00642 -0.000856503 0
1.00686 -0.000853832 0
1.00729 -0.000843577 0
1.00771 -0.000824803 0
1.00812 -0.000796569 0
1.00851 -0.000759115 0
1.00889 -0.00071268 0
1.00924 -0.000656449 0
1.00956 -0.000589606 0
1.00984 -0.000513333 0
1.01008 -0.000428808 0
1.01028 -0.000337267 0
1.01042 -0.000239941 0
1.01052 -0.000138706 0
1.01056 -3.54381e-05 0
1.01056 6.85876e-05 0
1.0105 0.000172094 0
1.01039 0.000271809 0
1.01022 0.000364461 0
1.01001 0.000449544 0
1.00976 0.000526554 0
1.00947 0.000594655 0
1.00915 0.00065301 0
1.00881 0.000701371 0
1.00844 0.00073949 0
1.00805 0.000767404 0
1.00766 0.000785155 0
1.00726 0.000793907 0
1.00686 0.000794827 0
1.00646 0.000788433 0
1.00606 0.000775242 0
1.00568 0.000756282 0
1.0053 0.000732581 0
1.00494 0.000705136 0
1.00459 0.000674946 0
1.00426 0.000642735 0
1.00395 0.000609232 0
1.00365 0.000574922 0
1.00337 0.000540295 0
1.00311 0.000505788 0
1.00287 0.000471843 0
1.00264 0.000438689 0
1.00243 0.000406554 0
1.00223 0.000375575 0
1.00205 0.000345885 0
1.00189 0.000317538 0
1.00174 0.000290588 0
1.0016 0.000265028 0
1.00147 0.000240851 0
1.00136 0.000217994 0
1.00126 0.000196394 0
1.00117 0.000175997 0
1.00108 0.000156752 0
1.00101 0.000138531 0
1.00095 0.000121207 0
1.00089 0.000104737 0
1.00084 8.90794e-05 0
1.0008 7.40511e-05 0
1.00077 5.94707e-05 0
1.00074 4.53734e-05 0
1.00072 3.17943e-05 0
1 0 0
1.00001 -0.000136522 0
1.00012 -0.000445836 0
1.00031 -0.000755769 0
1.00058 -0.00089415 0
1.00089 -0.000929044 0
1.00119 -0.00092852 0
1.0015 -0.000925799 0
1.00181 -0.000954101 0
1.00213 -0.000993316 0
1.00246 -0.00102333 0
1.00281 -0.00105144 0
1.00316 -0.00108492 0
1.00353 -0.00112086 0
1.00391 -0.00115634 0
1.0043 -0.00119001 0
1.00471 -0.00122052 0
1.00512 -0.00124736 0
1.00555 -0.00127003 0
1.00598 -0.00128612 0
1.00642 -0.0012932 0
1.00686 -0.00129001 0
1.0073 -0.00127526 0
1.00773 -0.00124764 0
1.00816 -0.00120582 0
1.00856 -0.0011504 0
1.00895 -0.00108201 0
1.00932 -0.000998526 0
1.00965 -0.000897836 0
1.00994 -0.000781708 0
1.0102 -0.000651907 0
1.0104 -0.000511374 0
1.01055 -0.000363046 0
1.01065 -0.000209803 0
1.01069 -5.45227e-05 0
1.01068 0.000102404 0
1.01062 0.000260586 0
1.01051 0.00041406 0
1.01034 0.000556864 0
1.01012 0.000687227 0
1.00985 0.00080338 0
1.00955 0.000905064 0
1.00922 0.000992021 0
1.00886 0.00106419 0
1.00847 0.00112153 0
1.00808 0.00116336 0
1.00767 0.00118906 0
1.00726 0.0012008 0
1.00685 0.00120078 0
1.00644 0.00119001 0
1.00604 0.00116951 0
1.00565 0.00114045 0
1.00527 0.00110399 0
1.0049 0.00106174 0
1.00455 0.00101527 0
1.00422 0.000965868 0
1.0039 0.000914802 0
1.00361 0.000862717 0
1.00333 0.00081026 0
1.00307 0.000758064 0
1.00282 0.000706764 0
1.0026 0.000656728 0
1.00239 0.000608323 0
1.0022 0.000561726 0
1.00202 0.000517115 0
1.00185 0.00047456 0
1.00171 0.00043413 0
1.00157 0.000395815 0
1.00145 0.000359604 0
1.00133 0.000325396 0
1.00123 0.000293086 0
1.00114 0.000262593 0
1.00106 0.000233834 0
1.00099 0.000206618 0
1.00093 0.000180754 0
1.00087 0.000156175 0
1.00082 0.000132814 0
1.00078 0.000110398 0
1.00075 8.86537e-05 0
1.00073 6.76321e-05 0
1.00071 4.73838e-05 0
1 0 0
1.00001 -0.000181096 0
1.00012 -0.000590964 0
1.0003 -0.00100163 0
1.00057 -0.00118511 0
1.00087 -0.00123167 0
1.00117 -0.00123159 0
1.00147 -0.00122871 0
1.00178 -0.00126688 0
1.00209 -0.00131973 0
1.00242 -0.00136087 0
1.00277 -0.00139966 0
1.00312 -0.00144544 0
1.00349 -0.00149464 0
1.00387 -0.00154366 0
1.00426 -0.00159053 0
1.00467 -0.00163324 0
1.00509 -0.00167112 0
1.00552 -0.00170351 0
1.00597 -0.00172681 0
1.00641 -0.00173743 0
1.00687 -0.0017349 0
1.00732 -0.00171875 0
1.00777 -0.00168596 0
1.00821 -0.00163353 0
1.00864 -0.0015612 0
1.00905 -0.00146873 0
1.00943 -0.00135469 0
1.00978 -0.00121766 0
1.01008 -0.00106058 0
1.01035 -0.000886376 0
1.01057 -0.00069674 0
1.01073 -0.000493351 0
1.01084 -0.000282349 0
1.01088 -6.98757e-05 0
1.01087 0.00014285 0
1.0108 0.000354611 0
1.01067 0.000560002 0
1.01049 0.000753621 0
1.01026 0.000932438 0
1.00999 0.00109343 0
1.00967 0.00123388 0
1.00932 0.00135109 0
1.00894 0.00144648 0
1.00854 0.00152146 0
1.00812 0.00157557 0
1.0077 0.00160833 0
1.00727 0.00162196 0
1.00684 0.00161866 0
1.00642 0.00160061 0
1.006 0.00156998 0
1.0056 0.00152867 0
1.00522 0.00147861 0
1.00485 0.00142127 0
1.00449 0.00135815 0
1.00416 0.00129097 0
1.00384 0.00122148 0
1.00354 0.00115076 0
1.00327 0.00107988 0
1.00301 0.00100957 0
1.00276 0.000940539 0
1.00254 0.000873298 0
1.00233 0.000808349 0
1.00214 0.000745934 0
1.00197 0.000686298 0
1.00181 0.000629496 0
1.00166 0.000575586 0
1.00153 0.000524548 0
1.0014 0.00047636 0
1.00129 0.000430882 0
1.0012 0.000387971 0
1.00111 0.000347507 0
1.00103 0.000309365 0
1.00096 0.000273293 0
1.0009 0.000239033 0
1.00084 0.000206493 0
1.0008 0.00017558 0
1.00076 0.00014593 0
1.00073 0.000117178 0
1.0007 8.93895e-05 0
1.00068 6.26296e-05 0
1 0 0
1.00001 -0.000224804 0
1.00011 -0.000733008 0
1.0003 -0.00124216 0
1.00056 -0.00146982 0
1.00085 -0.00152804 0
1.00114 -0.00152892 0
1.00144 -0.00152652 0
1.00174 -0.00157493 0
1.00205 -0.00164187 0
1.00238 -0.00169508 0
1.00271 -0.00174563 0
1.00306 -0.0018046 0
1.00343 -0.00186815 0
1.00381 -0.00193245 0
1.00421 -0.00199438 0
1.00462 -0.00205086 0
1.00505 -0.00210146 0
1.00549 -0.00214577 0
1.00594 -0.00217873 0
1.0064 -0.00219528 0
1.00687 -0.00219581 0
1.00735 -0.00218069 0
1.00782 -0.00214455 0
1.00829 -0.00208202 0
1.00874 -0.00199252 0
1.00917 -0.00187543 0
1.00957 -0.00173002 0
1.00994 -0.00155554 0
1.01027 -0.0013565 0
1.01055 -0.00113741 0
1.01079 -0.000897382 0
1.01097 -0.000635519 0
1.01109 -0.000361574 0
1.01114 -8.53005e-05 0
1.01112 0.000189745 0
1.01103 0.000460005 0
1.01089 0.000720418 0
1.0107 0.000965919 0
1.01045 0.00119377 0
1.01016 0.00140123 0
1.00982 0.00158238 0
1.00944 0.00173128 0
1.00904 0.00185043 0
1.00861 0.00194233 0
1.00817 0.00200742 0
1.00773 0.00204613 0
1.00727 0.00206055 0
1.00683 0.00205276 0
1.00639 0.00202579 0
1.00596 0.00198267 0
1.00555 0.00192653 0
1.00515 0.00186049 0
1.00478 0.00178604 0
1.00442 0.00170467 0
1.00408 0.00161843 0
1.00376 0.00152935 0
1.00346 0.00143896 0
1.00319 0.00134878 0
1.00293 0.00125964 0
1.00269 0.00117237 0
1.00247 0.00108755 0
1.00226 0.00100579 0
1.00207 0.000927367 0
1.0019 0.000852589 0
1.00174 0.000781497 0
1.0016 0.000714133 0
1.00147 0.000650446 0
1.00135 0.000590384 0
1.00124 0.000533766 0
1.00115 0.000480408 0
1.00106 0.000430144 0
1.00099 0.000382804 0
1.00092 0.000338068 0
1.00086 0.000295612 0
1.00081 0.000255314 0
1.00076 0.000217053 0
1.00073 0.000180374 0
1.00069 0.000144821 0
1.00067 0.000110473 0
1.00065 7.74071e-05 0
1 0 0
1.00001 -0.000267405 0
1.00011 -0.000871145 0
1.00029 -0.00147596 0
1.00054 -0.00174657 0
1.00083 -0.00181641 0
1.00111 -0.00181889 0
1.00139 -0.0018178 0
1.00169 -0.00187691 0
1.00199 -0.00195852 0
1.00231 -0.00202494 0
1.00265 -0.00208856 0
1.003 -0.00216178 0
1.00336 -0.0022411 0
1.00374 -0.00232302 0
1.00414 -0.00240251 0
1.00456 -0.00247453 0
1.005 -0.00253989 0
1.00545 -0.00259939 0
1.00591 -0.00264604 0
1.0064 -0.00267287 0
1.00689 -0.00268005 0
1.00739 -0.00266774 0
1.00788 -0.0026282 0
1.00837 -0.00255365 0
1.00885 -0.0024454 0
1.00931 -0.00230473 0
1.00974 -0.0021296 0
1.01014 -0.00191794 0
1.0105 -0.00167604 0
1.01081 -0.00141021 0
1.01107 -0.00111731 0
1.01126 -0.000794214 0
1.01139 -0.000452711 0
1.01145 -0.0001046 0
1.01143 0.00024291 0
1.01135 0.000582608 0
1.01119 0.000906089 0
1.01096 0.00120495 0
1.01068 0.00147982 0
1.01035 0.00173135 0
1.00998 0.00195185 0
1.00958 0.00213364 0
1.00915 0.00227823 0
1.00869 0.00238716 0
1.00823 0.00246232 0
1.00776 0.00250562 0
1.00728 0.00251974 0
1.00682 0.00250737 0
1.00636 0.00247113 0
1.00591 0.00241366 0
1.00549 0.00233962 0
1.00508 0.00225371 0
1.00469 0.00215834 0
1.00433 0.00205595 0
1.00398 0.00194864 0
1.00366 0.00183848 0
1.00336 0.00172721 0
1.00309 0.00161655 0
1.00283 0.0015076 0
1.00259 0.00140144 0
1.00237 0.00129865 0
1.00217 0.0011998 0
1.00199 0.00110519 0
1.00182 0.00101515 0
1.00167 0.000929713 0
1.00153 0.000848945 0
1.0014 0.000772728 0
1.00129 0.000700943 0
1.00118 0.000633362 0
1.00109 0.000569756 0
1.00101 0.00050991 0
1.00094 0.00045361 0
1.00087 0.000400459 0
1.00081 0.000350059 0
1.00076 0.000302258 0
1.00072 0.000256904 0
1.00069 0.000213453 0
1.00066 0.00017136 0
1.00063 0.000130711 0
1.00062 9.1592e-05 0
1 0 0
1.00001 -0.000308657 0
1.00011 -0.00100447 0
1.00028 -0.00170142 0
1.00052 -0.0020135 0
1.00079 -0.0020949 0
1.00107 -0.0020998 0
1.00134 -0.00210096 0
1.00163 -0.00217117 0
1.00192 -0.00226799 0
1.00224 -0.00234904 0
1.00257 -0.00242739 0
1.00291 -0.00251612 0
1.00327 -0.00261278 0
1.00365 -0.00271491 0
1.00406 -0.00281476 0
1.00448 -0.00290456 0
1.00493 -0.00298732 0
1.00539 -0.00306602 0
1.00587 -0.00313054 0
1.00638 -0.00317075 0
1.00689 -0.00318713 0
1.00742 -0.00318014 0
1.00794 -0.00313949 0
1.00846 -0.0030549 0
1.00897 -0.00293067 0
1.00947 -0.00277111 0
1.00994 -0.00256964 0
1.01039 -0.00231969 0
1.01079 -0.00202989 0
1.01114 -0.00170887 0
1.01142 -0.00135416 0
1.01162 -0.000963288 0
1.01176 -0.000549983 0
1.01183 -0.000127962 0
1.01181 0.000295639 0
1.01172 0.000713685 0
1.01155 0.00111122 0
1.01129 0.00147331 0
1.01098 0.00180211 0
1.0106 0.00209982 0
1.01019 0.00235922 0
1.00975 0.00257312 0
1.00928 0.0027422 0
1.00878 0.00286716 0
1.00828 0.00295034 0
1.00778 0.0029941 0
1.00728 0.00300314 0
1.00679 0.00298215 0
1.00631 0.00293349 0
1.00585 0.00285949 0
1.0054 0.00276558 0
1.00498 0.0026572 0
1.00458 0.00253811 0
1.00421 0.00241209 0
1.00386 0.00228144 0
1.00354 0.00214846 0
1.00324 0.00201493 0
1.00297 0.00188263 0
1.00271 0.0017529 0
1.00248 0.00162707 0
1.00226 0.00150572 0
1.00207 0.00138944 0
1.00189 0.00127847 0
1.00173 0.00117306 0
1.00158 0.00107327 0
1.00144 0.000979174 0
1.00132 0.00089057 0
1.00121 0.000807257 0
1.00111 0.000728948 0
1.00103 0.000655353 0
1.00095 0.000586205 0
1.00088 0.000521236 0
1.00081 0.000459972 0
1.00076 0.000401937 0
1.00071 0.000346945 0
1.00067 0.000294809 0
1.00064 0.000244897 0
1.00061 0.000196575 0
1.00059 0.000149934 0
1.00058 0.000105068 0
1 0 0
1.00001 -0.000348315 0
1.0001 -0.00113208 0
1.00026 -0.00191698 0
1.00049 -0.00226874 0
1.00076 -0.00236163 0
1.00102 -0.00236991 0
1.00128 -0.00237444 0
1.00155 -0.00245605 0
1.00184 -0.00256861 0
1.00215 -0.00266599 0
1.00247 -0.00276107 0
1.00281 -0.00286678 0
1.00316 -0.0029825 0
1.00355 -0.00310765 0
1.00395 -0.003231 0
1.00438 -0.00334129 0
1.00483 -0.00344468 0
1.00531 -0.00354733 0
1.00581 -0.00363401 0
1.00633 -0.00368948 0
1.00687 -0.00371658 0
1.00742 -0.0037181 0
1.00798 -0.00368102 0
1.00855 -0.00359226 0
1.00911 -0.00345916 0
1.00966 -0.00328902 0
1.0102 -0.00306634 0
1.0107 -0.00277563 0
1.01114 -0.00242873 0
1.01153 -0.00203747 0
1.01183 -0.00160554 0
1.01206 -0.00113659 0
1.01221 -0.000647613 0
1.01227 -0.000155574 0
1.01225 0.000341229 0
1.01216 0.000844501 0
1.01197 0.00133003 0
1.0117 0.0017736 0
1.01135 0.00217217 0
1.01093 0.00252268 0
1.01047 0.00282142 0
1.00996 0.00306466 0
1.00944 0.00325463 0
1.00889 0.00339354 0
1.00833 0.00348157 0
1.00778 0.00351888 0
1.00724 0.00351433 0
1.00672 0.00347676 0
1.00621 0.00340971 0
1.00574 0.00331672 0
1.00528 0.00320204 0
1.00485 0.0030699 0
1.00444 0.00292529 0
1.00407 0.00277317 0
1.00372 0.00261667 0
1.0034 0.00245889 0
1.0031 0.00230157 0
1.00282 0.00214645 0
1.00257 0.00199497 0
1.00234 0.00184855 0
1.00214 0.00170792 0
1.00195 0.00157378 0
1.00177 0.00144624 0
1.00162 0.0013254 0
1.00147 0.00121129 0
1.00135 0.00110397 0
1.00123 0.00100315 0
1.00113 0.000908547 0
1.00103 0.000819798 0
1.00095 0.000736534 0
1.00088 0.000658424 0
1.00081 0.000585135 0
1.00075 0.000516114 0
1.0007 0.00045081 0
1.00066 0.000388996 0
1.00062 0.000330444 0
1.00059 0.000274435 0
1.00056 0.000220247 0
1.00054 0.000167976 0
1.00053 0.000117717 0
1 0 0
1.00001 -0.000386023 0
1.0001 -0.00125288 0
1.00025 -0.00212083 0
1.00046 -0.00251013 0
1.00071 -0.00261436 0
1.00096 -0.00262708 0
1.00121 -0.00263614 0
1.00147 -0.00272937 0
1.00174 -0.00285815 0
1.00204 -0.00297389 0
1.00235 -0.003088 0
1.00268 -0.00321189 0
1.00303 -0.00334831 0
1.00341 -0.00350002 0
1.00382 -0.00365092 0
1.00425 -0.00378493 0
1.00471 -0.00391275 0
1.0052 -0.00404507 0
1.00572 -0.00415959 0
1.00627 -0.004234 0
1.00683 -0.00427653 0
1.00742 -0.0042954 0
1.00803 -0.00427124 0
1.00865 -0.00418465 0
1.00928 -0.00404526 0
1.0099 -0.00386266 0
1.01049 -0.00361431 0
1.01104 -0.00327768 0
1.01154 -0.00286984 0
1.01197 -0.00240787 0
1.01232 -0.0018958 0
1.01259 -0.00133767 0
1.01275 -0.000757589 0
1.01282 -0.000179676 0
1.01279 0.000403456 0
1.01267 0.000999195 0
1.01246 0.00157724 0
1.01216 0.00210729 0
1.01177 0.00258184 0
1.0113 0.00299338 0
1.01078 0.00333816 0
1.01021 0.00361247 0
1.00962 0.00382192 0
1.00901 0.00397215 0
1.0084 0.00406189 0
1.00779 0.00408989 0
1.0072 0.00406773 0
1.00664 0.00400702 0
1.0061 0.0039139 0
1.0056 0.00379454 0
1.00513 0.00365289 0
1.00469 0.0034929 0
1.00428 0.00331976 0
1.0039 0.00313861 0
1.00354 0.00295348 0
1.00322 0.00276839 0
1.00293 0.00258526 0
1.00266 0.00240603 0
1.00241 0.00223193 0
1.00219 0.00206419 0
1.00199 0.0019037 0
1.00181 0.00175137 0
1.00164 0.00160711 0
1.00149 0.00147086 0
1.00136 0.00134259 0
1.00124 0.00122226 0
1.00113 0.0011095 0
1.00103 0.00100393 0
1.00094 0.000905108 0
1.00086 0.000812574 0
1.0008 0.000725918 0
1.00073 0.000644731 0
1.00068 0.000568381 0
1.00063 0.000496234 0
1.00059 0.000428025 0
1.00056 0.000363483 0
1.00053 0.000301799 0
1.00051 0.000242162 0
1.00049 0.00018467 0
1.00047 0.000129425 0
1 0 0
1.00001 -0.000421425 0
1.00009 -0.0013658 0
1.00023 -0.00231115 0
1.00043 -0.0027355 0
1.00066 -0.00285084 0
1.00089 -0.00286915 0
1.00112 -0.00288398 0
1.00137 -0.0029889 0
1.00163 -0.00313437 0
1.00191 -0.00327085 0
1.00221 -0.00340653 0
1.00253 -0.00354958 0
1.00288 -0.00370824 0
1.00325 -0.00389076 0
1.00366 -0.00407422 0
1.0041 -0.00423572 0
1.00457 -0.00439229 0
1.00507 -0.00456099 0
1.00562 -0.00471044 0
1.00619 -0.00480923 0
1.0068 -0.00487511 0
1.00744 -0.00492579 0
1.00811 -0.00492863 0
1.0088 -0.00485096 0
1.00949 -0.00470331 0
1.01017 -0.0044962 0
1.01081 -0.00420817 0
1.01141 -0.00381776 0
1.01196 -0.00335049 0
1.01245 -0.00283189 0
1.01288 -0.0022493 0
1.01321 -0.00159007 0
1.01344 -0.000891896 0
1.01352 -0.000192507 0
1.01346 0.000506095 0
1.01329 0.0012019 0
1.01301 0.0018676 0
1.01264 0.00247586 0
1.0122 0.00302299 0
1.01168 0.00350532 0
1.01111 0.00390913 0
1.01048 0.00422072 0
1.00982 0.00445048 0
1.00916 0.00460882 0
1.0085 0.00469719 0
1.00784 0.00471704 0
1.0072 0.00467776 0
1.00659 0.00458876 0
1.00601 0.00446017 0
1.00547 0.00430211 0
1.00497 0.00412201 0
1.00451 0.0039273 0
1.00409 0.00372141 0
1.0037 0.0035078 0
1.00334 0.00329101 0
1.00302 0.0030756 0
1.00273 0.00286419 0
1.00247 0.00265942 0
1.00223 0.00246191 0
1.00202 0.00227228 0
1.00182 0.00209155 0
1.00165 0.00192076 0
1.00149 0.0017597 0
1.00135 0.00160816 0
1.00123 0.00146598 0
1.00111 0.00133296 0
1.00101 0.00120864 0
1.00092 0.00109252 0
1.00084 0.000984068 0
1.00077 0.000882742 0
1.00071 0.000788038 0
1.00065 0.000699451 0
1.0006 0.000616267 0
1.00056 0.000537769 0
1.00052 0.000463649 0
1.00049 0.0003936 0
1.00047 0.000326719 0
1.00045 0.000262102 0
1.00043 0.000199854 0
1.00042 0.000140077 0
1 0 0
1.00001 -0.000454177 0
1.00008 -0.0014697 0
1.00021 -0.00248601 0
1.00039 -0.00294258 0
1.0006 -0.0030687 0
1.00081 -0.00309367 0
1.00103 -0.00311552 0
1.00126 -0.00323229 0
1.0015 -0.00339495 0
1.00177 -0.00355444 0
1.00205 -0.00371404 0
1.00236 -0.00387699 0
1.0027 -0.00405967 0
1.00307 -0.00427849 0
1.00347 -0.00450033 0
1.00391 -0.0046921 0
1.00439 -0.00488093 0
1.00491 -0.00509396 0
1.00547 -0.00528784 0
1.00608 -0.00541924 0
1.00674 -0.00551675 0
1.00743 -0.00560894 0
1.00816 -0.00564608 0
1.00892 -0.00557843 0
1.00968 -0.00542335 0
1.01042 -0.00519822 0
1.01114 -0.00487815 0
1.01182 -0.00443826 0
1.01246 -0.00391228 0
1.01304 -0.00333394 0
1.01354 -0.00267189 0
1.01395 -0.00189477 0
1.01422 -0.00105593 0
1.01433 -0.000208748 0
1.01426 0.000632243 0
1.01404 0.0014525 0
1.01369 0.00222425 0
1.01325 0.00291971 0
1.01272 0.00354309 0
1.01211 0.00409856 0
1.01145 0.00456198 0
1.01074 0.0049092 0
1.01 0.00515438 0
1.00927 0.00531169 0
1.00854 0.00538835 0
1.00784 0.00539157 0
1.00715 0.00532866 0
1.0065 0.00520696 0
1.00588 0.00503864 0
1.0053 0.0048359 0
1.00477 0.00461038 0
1.00429 0.00437373 0
1.00386 0.00412889 0
1.00347 0.00387882 0
1.00311 0.0036276 0
1.00279 0.00337934 0
1.00251 0.00313746 0
1.00225 0.00290542 0
1.00202 0.00268326 0
1.00182 0.00247106 0
1.00164 0.00226979 0
1.00147 0.00208046 0
1.00133 0.00190267 0
1.0012 0.00173601 0
1.00108 0.0015802 0
1.00098 0.00143493 0
1.00089 0.00129955 0
1.00081 0.00117342 0
1.00073 0.00105589 0
1.00067 0.000946321 0
1.00061 0.000844126 0