<?xml version="1.0"?>
<VTKFile type="UnstructuredGrid">
  <UnstructuredGrid>
  <Piece NumberOfPoints="5265"  NumberOfCells="1280">
    <Points>
      <DataArray type="Float64" NumberOfComponents="3" format="ascii">
0 0 0
0.25 0 0
0.5 0 0
0.75 0 0
1 0 0
1.25 0 0
1.5 0 0
1.75 0 0
2 0 0
2.25 0 0
2.5 0 0
2.75 0 0
3 0 0
3.25 0 0
3.5 0 0
3.75 0 0
4 0 0
4.25 0 0
4.5 0 0
4.75 0 0
5 0 0
5.25 0 0
5.5 0 0
5.75 0 0
6 0 0
6.25 0 0
6.5 0 0
6.75 0 0
7 0 0
7.25 0 0
7.5 0 0
7.75 0 0
8 0 0
8.25 0 0
8.5 0 0
8.75 0 0
9 0 0
9.25 0 0
9.5 0 0
9.75 0 0
10 0 0
10.25 0 0
10.5 0 0
10.75 0 0
11 0 0
11.25 0 0
11.5 0 0
11.75 0 0
12 0 0
12.25 0 0
12.5 0 0
12.75 0 0
13 0 0
13.25 0 0
13.5 0 0
13.75 0 0
14 0 0
14.25 0 0
14.5 0 0
14.75 0 0
15 0 0
15.25 0 0
15.5 0 0
15.75 0 0
16 0 0
16.25 0 0
16.5 0 0
16.75 0 0
17 0 0
17.25 0 0
17.5 0 0
17.75 0 0
18 0 0
18.25 0 0
18.5 0 0
18.75 0 0
19 0 0
19.25 0 0
19.5 0 0
19.75 0 0
20 0 0
0 0.25 0
0.25 0.25 0
0.5 0.25 0
0.75 0.25 0
1 0.25 0
1.25 0.25 0
1.5 0.25 0
1.75 0.25 0
2 0.25 0
2.25 0.25 0
2.5 0.25 0
2.75 0.25 0
3 0.25 0
3.25 0.25 0
3.5 0.25 0
3.75 0.25 0
4 0.25 0
4.25 0.25 0
4.5 0.25 0
4.75 0.25 0
5 0.25 0
5.25 0.25 0
5.5 0.25 0
5.75 0.25 0
6 0.25 0
6.25 0.25 0
6.5 0.25 0
6.75 0.25 0
7 0.25 0
7.25 0.25 0
7.5 0.25 0
7.75 0.25 0
8 0.25 0
8.25 0.25 0
8.5 0.25 0
8.75 0.25 0
9 0.25 0
9.25 0.25 0
9.5 0.25 0
9.75 0.25 0
10 0.25 0
10.25 0.25 0
10.5 0.25 0
10.75 0.25 0
11 0.25 0
11.25 0.25 0
11.5 0.25 0
11.75 0.25 0
12 0.25 0
12.25 0.25 0
12.5 0.25 0
12.75 0.25 0
13 0.25 0
13.25 0.25 0
13.5 0.25 0
13.75 0.25 0
14 0.25 0
14.25 0.25 0
14.5 0.25 0
14.75 0.25 0
15 0.25 0
15.25 0.25 0
15.5 0.25 0
15.75 0.25 0
16 0.25 0
16.25 0.25 0
16.5 0.25 0
16.75 0.25 0
17 0.25 0
17.25 0.25 0
17.5 0.25 0
17.75 0.25 0
18 0.25 0
18.25 0.25 0
18.5 0.25 0
18.75 0.25 0
19 0.25 0
19.25 0.25 0
19.5 0.25 0
19.75 0.25 0
20 0.25 0
0 0.5 0
0.25 0.5 0
0.5 0.5 0
0.75 0.5 0
1 0.5 0
1.25 0.5 0
1.5 0.5 0
1.75 0.5 0
2 0.5 0
2.25 0.5 0
2.5 0.5 0
2.75 0.5 0
3 0.5 0
3.25 0.5 0
3.5 0.5 0
3.75 0.5 0
4 0.5 0
4.25 0.5 0
4.5 0.5 0
4.75 0.5 0
5 0.5 0
5.25 0.5 0
5.5 0.5 0
5.75 0.5 0
6 0.5 0
6.25 0.5 0
6.5 0.5 0
6.75 0.5 0
7 0.5 0
7.25 0.5 0
7.5 0.5 0
7.75 0.5 0
8 0.5 0
8.25 0.5 0
8.5 0.5 0
8.75 0.5 0
9 0.5 0
9.25 0.5 0
9.5 0.5 0
9.75 0.5 0
10 0.5 0
10.25 0.5 0
10.5 0.5 0
10.75 0.5 0
11 0.5 0
11.25 0.5 0
11.5 0.5 0
11.75 0.5 0
12 0.5 0
12.25 0.5 0
12.5 0.5 0
12.75 0.5 0
13 0.5 0
13.25 0.5 0
13.5 0.5 0
13.75 0.5 0
14 0.5 0
14.25 0.5 0
14.5 0.5 0
14.75 0.5 0
15 0.5 0
15.25 0.5 0
15.5 0.5 0
15.75 0.5 0
16 0.5 0
16.25 0.5 0
16.5 0.5 0
16.75 0.5 0
17 0.5 0
17.25 0.5 0
17.5 0.5 0
17.75 0.5 0
18 0.5 0
18.25 0.5 0
18.5 0.5 0
18.75 0.5 0
19 0.5 0
19.25 0.5 0
19.5 0.5 0
19.75 0.5 0
20 0.5 0
0 0.75 0
0.25 0.75 0
0.5 0.75 0
0.75 0.75 0
1 0.75 0
1.25 0.75 0
1.5 0.75 0
1.75 0.75 0
2 0.75 0
2.25 0.75 0
2.5 0.75 0
2.75 0.75 0
3 0.75 0
3.25 0.75 0
3.5 0.75 0
3.75 0.75 0
4 0.75 0
4.25 0.75 0
4.5 0.75 0
4.75 0.75 0
5 0.75 0
5.25 0.75 0
5.5 0.75 0
5.75 0.75 0
6 0.75 0
6.25 0.75 0
6.5 0.75 0
6.75 0.75 0
7 0.75 0
7.25 0.75 0
7.5 0.75 0
7.75 0.75 0
8 0.75 0
8.25 0.75 0
8.5 0.75 0
8.75 0.75 0
9 0.75 0
9.25 0.75 0
9.5 0.75 0
9.75 0.75 0
10 0.75 0
10.25 0.75 0
10.5 0.75 0
10.75 0.75 0
11 0.75 0
11.25 0.75 0
11.5 0.75 0
11.75 0.75 0
12 0.75 0
12.25 0.75 0
12.5 0.75 0
12.75 0.75 0
13 0.75 0
13.25 0.75 0
13.5 0.75 0
13.75 0.75 0
14 0.75 0
14.25 0.75 0
14.5 0.75 0
14.75 0.75 0
15 0.75 0
15.25 0.75 0
15.5 0.75 0
15.75 0.75 0
16 0.75 0
16.25 0.75 0
16.5 0.75 0
16.75 0.75 0
17 0.75 0
17.25 0.75 0
17.5 0.75 0
17.75 0.75 0
18 0.75 0
18.25 0.75 0
18.5 0.75 0
18.75 0.75 0
19 0.75 0
19.25 0.75 0
19.5 0.75 0
19.75 0.75 0
20 0.75 0
0 1 0
0.25 1 0
0.5 1 0
0.75 1 0
1 1 0
1.25 1 0
1.5 1 0
1.75 1 0
2 1 0
2.25 1 0
2.5 1 0
2.75 1 0
3 1 0
3.25 1 0
3.5 1 0
3.75 1 0
4 1 0
4.25 1 0
4.5 1 0
4.75 1 0
5 1 0
5.25 1 0
5.5 1 0
5.75 1 0
6 1 0
6.25 1 0
6.5 1 0
6.75 1 0
7 1 0
7.25 1 0
7.5 1 0
7.75 1 0
8 1 0
8.25 1 0
8.5 1 0
8.75 1 0
9 1 0
9.25 1 0
9.5 1 0
9.75 1 0
10 1 0
10.25 1 0
10.5 1 0
10.75 1 0
11 1 0
11.25 1 0
11.5 1 0
11.75 1 0
12 1 0
12.25 1 0
12.5 1 0
12.75 1 0
13 1 0
13.25 1 0
13.5 1 0
13.75 1 0
14 1 0
14.25 1 0
14.5 1 0
14.75 1 0
15 1 0
15.25 1 0
15.5 1 0
15.75 1 0
16 1 0
16.25 1 0
16.5 1 0
16.75 1 0
17 1 0
17.25 1 0
17.5 1 0
17.75 1 0
18 1 0
18.25 1 0
18.5 1 0
18.75 1 0
19 1 0
19.25 1 0
19.5 1 0
19.75 1 0
20 1 0
0 1.25 0
0.25 1.25 0
0.5 1.25 0
0.75 1.25 0
1 1.25 0
1.25 1.25 0
1.5 1.25 0
1.75 1.25 0
2 1.25 0
2.25 1.25 0
2.5 1.25 0
2.75 1.25 0
3 1.25 0
3.25 1.25 0
3.5 1.25 0
3.75 1.25 0
4 1.25 0
4.25 1.25 0
4.5 1.25 0
4.75 1.25 0
5 1.25 0
5.25 1.25 0
5.5 1.25 0
5.75 1.25 0
6 1.25 0
6.25 1.25 0
6.5 1.25 0
6.75 1.25 0
7 1.25 0
7.25 1.25 0
7.5 1.25 0
7.75 1.25 0
8 1.25 0
8.25 1.25 0
8.5 1.25 0
8.75 1.25 0
9 1.25 0
9.25 1.25 0
9.5 1.25 0
9.75 1.25 0
10 1.25 0
10.25 1.25 0
10.5 1.25 0
10.75 1.25 0
11 1.25 0
11.25 1.25 0
11.5 1.25 0
11.75 1.25 0
12 1.25 0
12.25 1.25 0
12.5 1.25 0
12.75 1.25 0
13 1.25 0
13.25 1.25 0
13.5 1.25 0
13.75 1.25 0
14 1.25 0
14.25 1.25 0
14.5 1.25 0
14.75 1.25 0
15 1.25 0
15.25 1.25 0
15.5 1.25 0
15.75 1.25 0
16 1.25 0
16.25 1.25 0
16.5 1.25 0
16.75 1.25 0
17 1.25 0
17.25 1.25 0
17.5 1.25 0
17.75 1.25 0
18 1.25 0
18.25 1.25 0
18.5 1.25 0
18.75 1.25 0
19 1.25 0
19.25 1.25 0
19.5 1.25 0
19.75 1.25 0
20 1.25 0
0 1.5 0
0.25 1.5 0
0.5 1.5 0
0.75 1.5 0
1 1.5 0
1.25 1.5 0
1.5 1.5 0
1.75 1.5 0
2 1.5 0
2.25 1.5 0
2.5 1.5 0
2.75 1.5 0
3 1.5 0
3.25 1.5 0
3.5 1.5 0
3.75 1.5 0
4 1.5 0
4.25 1.5 0
4.5 1.5 0
4.75 1.5 0
5 1.5 0
5.25 1.5 0
5.5 1.5 0
5.75 1.5 0
6 1.5 0
6.25 1.5 0
6.5 1.5 0
6.75 1.5 0
7 1.5 0
7.25 1.5 0
7.5 1.5 0
7.75 1.5 0
8 1.5 0
8.25 1.5 0
8.5 1.5 0
8.75 1.5 0
9 1.5 0
9.25 1.5 0
9.5 1.5 0
9.75 1.5 0
10 1.5 0
10.25 1.5 0
10.5 1.5 0
10.75 1.5 0
11 1.5 0
11.25 1.5 0
11.5 1.5 0
11.75 1.5 0
12 1.5 0
12.25 1.5 0
12.5 1.5 0
12.75 1.5 0
13 1.5 0
13.25 1.5 0
13.5 1.5 0
13.75 1.5 0
14 1.5 0
14.25 1.5 0
14.5 1.5 0
14.75 1.5 0
15 1.5 0
15.25 1.5 0
15.5 1.5 0
15.75 1.5 0
16 1.5 0
16.25 1.5 0
16.5 1.5 0
16.75 1.5 0
17 1.5 0
17.25 1.5 0
17.5 1.5 0
17.75 1.5 0
18 1.5 0
18.25 1.5 0
18.5 1.5 0
18.75 1.5 0
19 1.5 0
19.25 1.5 0
19.5 1.5 0
19.75 1.5 0
20 1.5 0
0 1.75 0
0.25 1.75 0
0.5 1.75 0
0.75 1.75 0
1 1.75 0
1.25 1.75 0
1.5 1.75 0
1.75 1.75 0
2 1.75 0
2.25 1.75 0
2.5 1.75 0
2.75 1.75 0
3 1.75 0
3.25 1.75 0
3.5 1.75 0
3.75 1.75 0
4 1.75 0
4.25 1.75 0
4.5 1.75 0
4.75 1.75 0
5 1.75 0
5.25 1.75 0
5.5 1.75 0
5.75 1.75 0
6 1.75 0
6.25 1.75 0
6.5 1.75 0
6.75 1.75 0
7 1.75 0
7.25 1.75 0
7.5 1.75 0
7.75 1.75 0
8 1.75 0
8.25 1.75 0
8.5 1.75 0
8.75 1.75 0
9 1.75 0
9.25 1.75 0
9.5 1.75 0
9.75 1.75 0
10 1.75 0
10.25 1.75 0
10.5 1.75 0
10.75 1.75 0
11 1.75 0
11.25 1.75 0
11.5 1.75 0
11.75 1.75 0
12 1.75 0
12.25 1.75 0
12.5 1.75 0
12.75 1.75 0
13 1.75 0
13.25 1.75 0
13.5 1.75 0
13.75 1.75 0
14 1.75 0
14.25 1.75 0
14.5 1.75 0
14.75 1.75 0
15 1.75 0
15.25 1.75 0
15.5 1.75 0
15.75 1.75 0
16 1.75 0
16.25 1.75 0
16.5 1.75 0
16.75 1.75 0
17 1.75 0
17.25 1.75 0
17.5 1.75 0
17.75 1.75 0
18 1.75 0
18.25 1.75 0
18.5 1.75 0
18.75 1.75 0
19 1.75 0
19.25 1.75 0
19.5 1.75 0
19.75 1.75 0
20 1.75 0
0 2 0
0.25 2 0
0.5 2 0
0.75 2 0
1 2 0
1.25 2 0
1.5 2 0
1.75 2 0
2 2 0
2.25 2 0
2.5 2 0
2.75 2 0
3 2 0
3.25 2 0
3.5 2 0
3.75 2 0
4 2 0
4.25 2 0
4.5 2 0
4.75 2 0
5 2 0
5.25 2 0
5.5 2 0
5.75 2 0
6 2 0
6.25 2 0
6.5 2 0
6.75 2 0
7 2 0
7.25 2 0
7.5 2 0
7.75 2 0
8 2 0
8.25 2 0
8.5 2 0
8.75 2 0
9 2 0
9.25 2 0
9.5 2 0
9.75 2 0
10 2 0
10.25 2 0
10.5 2 0
10.75 2 0
11 2 0
11.25 2 0
11.5 2 0
11.75 2 0
12 2 0
12.25 2 0
12.5 2 0
12.75 2 0
13 2 0
13.25 2 0
13.5 2 0
13.75 2 0
14 2 0
14.25 2 0
14.5 2 0
14.75 2 0
15 2 0
15.25 2 0
15.5 2 0
15.75 2 0
16 2 0
16.25 2 0
16.5 2 0
16.75 2 0
17 2 0
17.25 2 0
17.5 2 0
17.75 2 0
18 2 0
18.25 2 0
18.5 2 0
18.75 2 0
19 2 0
19.25 2 0
19.5 2 0
19.75 2 0
20 2 0
0 2.25 0
0.25 2.25 0
0.5 2.25 0
0.75 2.25 0
1 2.25 0
1.25 2.25 0
1.5 2.25 0
1.75 2.25 0
2 2.25 0
2.25 2.25 0
2.5 2.25 0
2.75 2.25 0
3 2.25 0
3.25 2.25 0
3.5 2.25 0
3.75 2.25 0
4 2.25 0
4.25 2.25 0
4.5 2.25 0
4.75 2.25 0
5 2.25 0
5.25 2.25 0
5.5 2.25 0
5.75 2.25 0
6 2.25 0
6.25 2.25 0
6.5 2.25 0
6.75 2.25 0
7 2.25 0
7.25 2.25 0
7.5 2.25 0
7.75 2.25 0
8 2.25 0
8.25 2.25 0
8.5 2.25 0
8.75 2.25 0
9 2.25 0
9.25 2.25 0
9.5 2.25 0
9.75 2.25 0
10 2.25 0
10.25 2.25 0
10.5 2.25 0
10.75 2.25 0
11 2.25 0
11.25 2.25 0
11.5 2.25 0
11.75 2.25 0
12 2.25 0
12.25 2.25 0
12.5 2.25 0
12.75 2.25 0
13 2.25 0
13.25 2.25 0
13.5 2.25 0
13.75 2.25 0
14 2.25 0
14.25 2.25 0
14.5 2.25 0
14.75 2.25 0
15 2.25 0
15.25 2.25 0
15.5 2.25 0
15.75 2.25 0
16 2.25 0
16.25 2.25 0
16.5 2.25 0
16.75 2.25 0
17 2.25 0
17.25 2.25 0
17.5 2.25 0
17.75 2.25 0
18 2.25 0
18.25 2.25 0
18.5 2.25 0
18.75 2.25 0
19 2.25 0
19.25 2.25 0
19.5 2.25 0
19.75 2.25 0
20 2.25 0
0 2.5 0
0.25 2.5 0
0.5 2.5 0
0.75 2.5 0
1 2.5 0
1.25 2.5 0
1.5 2.5 0
1.75 2.5 0
2 2.5 0
2.25 2.5 0
2.5 2.5 0
2.75 2.5 0
3 2.5 0
3.25 2.5 0
3.5 2.5 0
3.75 2.5 0
4 2.5 0
4.25 2.5 0
4.5 2.5 0
4.75 2.5 0
5 2.5 0
5.25 2.5 0
5.5 2.5 0
5.75 2.5 0
6 2.5 0
6.25 2.5 0
6.5 2.5 0
6.75 2.5 0
7 2.5 0
7.25 2.5 0
7.5 2.5 0
7.75 2.5 0
8 2.5 0
8.25 2.5 0
8.5 2.5 0
8.75 2.5 0
9 2.5 0
9.25 2.5 0
9.5 2.5 0
9.75 2.5 0
10 2.5 0
10.25 2.5 0
10.5 2.5 0
10.75 2.5 0
11 2.5 0
11.25 2.5 0
11.5 2.5 0
11.75 2.5 0
12 2.5 0
12.25 2.5 0
12.5 2.5 0
12.75 2.5 0
13 2.5 0
13.25 2.5 0
13.5 2.5 0
13.75 2.5 0
14 2.5 0
14.25 2.5 0
14.5 2.5 0
14.75 2.5 0
15 2.5 0
15.25 2.5 0
15.5 2.5 0
15.75 2.5 0
16 2.5 0
16.25 2.5 0
16.5 2.5 0
16.75 2.5 0
17 2.5 0
17.25 2.5 0
17.5 2.5 0
17.75 2.5 0
18 2.5 0
18.25 2.5 0
18.5 2.5 0
18.75 2.5 0
19 2.5 0
19.25 2.5 0
19.5 2.5 0
19.75 2.5 0
20 2.5 0
0 2.75 0
0.25 2.75 0
0.5 2.75 0
0.75 2.75 0
1 2.75 0
1.25 2.75 0
1.5 2.75 0
1.75 2.75 0
2 2.75 0
2.25 2.75 0
2.5 2.75 0
2.75 2.75 0
3 2.75 0
3.25 2.75 0
3.5 2.75 0
3.75 2.75 0
4 2.75 0
4.25 2.75 0
4.5 2.75 0
4.75 2.75 0
5 2.75 0
5.25 2.75 0
5.5 2.75 0
5.75 2.75 0
6 2.75 0
6.25 2.75 0
6.5 2.75 0
6.75 2.75 0
7 2.75 0
7.25 2.75 0
7.5 2.75 0
7.75 2.75 0
8 2.75 0
8.25 2.75 0
8.5 2.75 0
8.75 2.75 0
9 2.75 0
9.25 2.75 0
9.5 2.75 0
9.75 2.75 0
10 2.75 0
10.25 2.75 0
10.5 2.75 0
10.75 2.75 0
11 2.75 0
11.25 2.75 0
11.5 2.75 0
[...]
    <PointData>
      <DataArray type="Float64" NumberOfComponents="3" Name="Velocity" format="ascii">
1 0 0
1.00004 0 0
1.00019 0 0
1.00042 0 0
1.0007 0 0
1.001 0 0
1.00129 0 0
1.00158 0 0
1.00188 0 0
1.00219 0 0
1.00252 0 0
1.00285 0 0
1.00319 0 0
1.00354 0 0
1.00391 0 0
1.00429 0 0
1.00467 0 0
1.00507 0 0
1.00547 0 0
1.00588 0 0
1.00629 0 0
1.0067 0 0
1.00711 0 0
1.0075 0 0
1.00789 0 0
1.00827 0 0
1.00862 0 0
1.00894 0 0
1.00924 0 0
1.00951 0 0
1.00973 0 0
1.00991 0 0
1.01004 0 0
1.01012 0 0
1.01016 0 0
1.01015 0 0
1.01009 0 0
1.00999 0 0
1.00983 0 0
1.00963 0 0
1.00939 0 0
1.00911 0 0
1.00881 0 0
1.00848 0 0
1.00813 0 0
1.00777 0 0
1.0074 0 0
1.00702 0 0
1.00663 0 0
1.00625 0 0
1.00588 0 0
1.00551 0 0
1.00515 0 0
1.0048 0 0
1.00447 0 0
1.00415 0 0
1.00384 0 0
1.00356 0 0
1.00329 0 0
1.00304 0 0
1.0028 0 0
1.00258 0 0
1.00238 0 0
1.00219 0 0
1.00201 0 0
1.00185 0 0
1.00171 0 0
1.00158 0 0
1.00145 0 0
1.00134 0 0
1.00125 0 0
1.00116 0 0
1.00108 0 0
1.00101 0 0
1.00095 0 0
1.00089 0 0
1.00085 0 0
1.00081 0 0
1.00078 0 0
1.00076 0 0
1.00075 0 0
1 0 0
1.00004 -8.55006e-05 0
1.00018 -0.000191105 0
1.00041 -0.000274878 0
1.0007 -0.000294887 0
1.001 -0.000287599 0
1.00128 -0.000289486 0
1.00157 -0.000297136 0
1.00188 -0.000307139 0
1.00219 -0.000317683 0
1.00251 -0.000326959 0
1.00284 -0.000336529 0
1.00318 -0.000347959 0
1.00354 -0.000359854 0
1.0039 -0.000370821 0
1.00428 -0.000381118 0
1.00467 -0.000391001 0
1.00506 -0.000399595 0
1.00546 -0.000406024 0
1.00587 -0.000410038 0
1.00629 -0.000411387 0
1.0067 -0.000409825 0
1.00711 -0.000405107 0
1.00751 -0.00039649 0
1.0079 -0.000383233 0
1.00828 -0.000364869 0
1.00863 -0.000340934 0
1.00896 -0.000312376 0
1.00926 -0.000280142 0
1.00952 -0.000243901 0
1.00975 -0.00020332 0
1.00993 -0.000158745 0
1.01007 -0.000110519 0
1.01016 -6.06832e-05 0
1.01019 -1.12768e-05 0
1.01018 3.739e-05 0
1.01011 8.50074e-05 0
1.01 0.000131569 0
1.00985 0.000177067 0
1.00965 0.000219752 0
1.00941 0.000257874 0
1.00914 0.000290859 0
1.00883 0.000318133 0
1.0085 0.000340381 0
1.00815 0.000358292 0
1.00778 0.000371641 0
1.0074 0.000380207 0
1.00702 0.00038424 0
1.00663 0.00038399 0
1.00624 0.000380192 0
1.00587 0.00037358 0
1.0055 0.000364521 0
1.00514 0.000353384 0
1.00479 0.000340432 0
1.00446 0.000325931 0
1.00414 0.000310333 0
1.00383 0.000294089 0
1.00355 0.000277468 0
1.00328 0.000260737 0
1.00303 0.000244065 0
1.00279 0.00022762 0
1.00257 0.000211536 0
1.00237 0.000195943 0
1.00218 0.000180908 0
1.00201 0.000166495 0
1.00185 0.000152722 0
1.0017 0.000139608 0
1.00157 0.000127153 0
1.00145 0.000115358 0
1.00134 0.000104191 0
1.00124 9.36224e-05 0
1.00115 8.36209e-05 0
1.00107 7.41568e-05 0
1.001 6.51732e-05 0
1.00094 5.66134e-05 0
1.00089 4.84487e-05 0
1.00085 4.06505e-05 0
1.00081 3.31353e-05 0
1.00078 2.58197e-05 0
1.00076 1.87193e-05 0
1.00074 1.18496e-05 0
1 0 0
1.00004 -0.000170595 0
1.00018 -0.000381227 0
1.00041 -0.000548309 0
1.00069 -0.000588254 0
1.00099 -0.000573799 0
1.00127 -0.000577679 0
1.00156 -0.000593099 0
1.00186 -0.00061326 0
1.00217 -0.000634522 0
1.00249 -0.000653246 0
1.00282 -0.000672594 0
1.00317 -0.000695731 0
1.00352 -0.000719885 0
1.00389 -0.000742284 0
1.00426 -0.000763264 0
1.00465 -0.000783159 0
1.00505 -0.000800606 0
1.00546 -0.00081424 0
1.00587 -0.000823427 0
1.00629 -0.00082753 0
1.00671 -0.000825169 0
1.00712 -0.000814965 0
1.00753 -0.000796495 0
1.00793 -0.000769336 0
1.00831 -0.000732812 0
1.00867 -0.000686247 0
1.00901 -0.000630048 0
1.00931 -0.000564625 0
1.00958 -0.000490732 0
1.00981 -0.000409126 0
1.01 -0.000320521 0
1.01014 -0.000225631 0
1.01023 -0.000126259 0
1.01027 -2.42065e-05 0
1.01026 7.76539e-05 0
1.01019 0.000176449 0
1.01007 0.000270823 0
1.00991 0.000359422 0
1.0097 0.000441581 0
1.00946 0.000516634 0
1.00918 0.00058308 0
1.00887 0.000639419 0
1.00853 0.00068555 0
1.00817 0.000721375 0
1.00779 0.000747429 0
1.00741 0.000764248 0
1.00702 0.0007724 0
1.00663 0.000772453 0
1.00624 0.000765195 0
1.00586 0.000751418 0
1.00548 0.000732275 0
1.00512 0.000708918 0
1.00477 0.000682129 0
1.00443 0.000652687 0
1.00411 0.000621269 0
1.00381 0.000588556 0
1.00352 0.000555078 0
1.00325 0.000521367 0
1.003 0.000487814 0
1.00277 0.000454809 0
1.00255 0.000422571 0
1.00235 0.000391319 0
1.00216 0.000361192 0
1.00199 0.000332328 0
1.00183 0.000304766 0
1.00168 0.000278544 0
1.00155 0.000253653 0
1.00143 0.000230085 0
1.00132 0.000207779 0
1.00122 0.000186676 0
1.00114 0.000166714 0
1.00106 0.00014783 0
1.00099 0.00012991 0
1.00093 0.000112838 0
1.00088 9.65572e-05 0
1.00083 8.10107e-05 0
1.0008 6.60306e-05 0
1.00077 5.14491e-05 0
1.00075 3.72958e-05 0
1.00073 2.36002e-05 0
1 0 0
1.00004 -0.000254814 0
1.00018 -0.000569331 0
1.00041 -0.000818832 0
1.00068 -0.000878601 0
1.00098 -0.000857233 0
1.00126 -0.000863322 0
1.00154 -0.000886719 0
1.00184 -0.000917272 0
1.00215 -0.000949555 0
1.00247 -0.000978144 0
1.0028 -0.00100776 0
1.00314 -0.00104314 0
1.00349 -0.00108015 0
1.00386 -0.00111466 0
1.00424 -0.00114711 0
1.00463 -0.00117793 0
1.00503 -0.00120519 0
1.00544 -0.00122697 0
1.00586 -0.00124223 0
1.00629 -0.00124992 0
1.00671 -0.00124753 0
1.00714 -0.00123259 0
1.00756 -0.00120499 0
1.00796 -0.00116462 0
1.00836 -0.00111061 0
1.00873 -0.00104207 0
1.00908 -0.000958451 0
1.0094 -0.000859197 0
1.00968 -0.00074617 0
1.00992 -0.000621231 0
1.01011 -0.000486328 0
1.01026 -0.000343408 0
1.01035 -0.000193693 0
1.01039 -3.84055e-05 0
1.01038 0.000117823 0
1.01032 0.00027036 0
1.0102 0.00041556 0
1.01002 0.000549777 0
1.0098 0.000673101 0
1.00954 0.000785619 0
1.00925 0.000885511 0
1.00892 0.000970958 0
1.00858 0.00104097 0
1.0082 0.00109456 0
1.00782 0.00113285 0
1.00742 0.00115693 0
1.00702 0.00116805 0
1.00663 0.00116744 0
1.00623 0.00115591 0
1.00584 0.00113428 0
1.00546 0.00110437 0
1.00509 0.001068 0
1.00473 0.00102656 0
1.0044 0.000981411 0
1.00407 0.000933485 0
1.00377 0.000883727 0
1.00348 0.000832909 0
1.00321 0.000781808 0
1.00296 0.000731034 0
1.00273 0.000681194 0
1.00251 0.000632593 0
1.00231 0.000585534 0
1.00212 0.000540216 0
1.00195 0.000496841 0
1.00179 0.000455462 0
1.00165 0.000416134 0
1.00152 0.000378832 0
1.0014 0.000343536 0
1.0013 0.000310152 0
1.0012 0.000278588 0
1.00111 0.000248746 0
1.00104 0.000220531 0
1.00097 0.000193766 0
1.00091 0.000168279 0
1.00086 0.000143982 0
1.00082 0.000120788 0
1.00078 9.84447e-05 0
1.00075 7.66998e-05 0
1.00073 5.55957e-05 0
1.00071 3.51745e-05 0
1 0 0
1.00004 -0.00033769 0
1.00018 -0.00075438 0
1.0004 -0.00108498 0
1.00067 -0.00116442 0
1.00096 -0.00113653 0
1.00124 -0.00114516 0
1.00151 -0.00117683 0
1.00181 -0.00121808 0
1.00211 -0.00126182 0
1.00243 -0.00130094 0
1.00276 -0.00134161 0
1.0031 -0.00139001 0
1.00345 -0.0014407 0
1.00382 -0.00148823 0
1.0042 -0.00153334 0
1.00459 -0.00157675 0
1.005 -0.00161548 0
1.00542 -0.00164654 0
1.00585 -0.00166853 0
1.00628 -0.00168004 0
1.00672 -0.00167843 0
1.00716 -0.00166102 0
1.00759 -0.00162696 0
1.00802 -0.0015754 0
1.00843 -0.00150503 0
1.00882 -0.00141453 0
1.00919 -0.00130301 0
1.00953 -0.00116961 0
1.00982 -0.00101589 0
1.01008 -0.000843452 0
1.01028 -0.000657166 0
1.01043 -0.00046192 0
1.01053 -0.00025995 0
1.01057 -5.34902e-05 0
1.01055 0.000154928 0
1.01049 0.000362776 0
1.01036 0.000563574 0
1.01018 0.000750844 0
1.00995 0.000921928 0
1.00968 0.00107417 0
1.00936 0.001207 0
1.00902 0.00131985 0
1.00865 0.00141211 0
1.00826 0.00148317 0
1.00785 0.00153337 0
1.00744 0.00156305 0
1.00702 0.00157475 0
1.00661 0.00157099 0
1.0062 0.00155324 0
1.0058 0.00152292 0
1.00542 0.0014819 0
1.00504 0.00143204 0
1.00468 0.0013752 0
1.00434 0.00131325 0
1.00402 0.00124766 0
1.00371 0.00117993 0
1.00342 0.00111104 0
1.00315 0.00104198 0
1.0029 0.000973512 0
1.00267 0.000906406 0
1.00245 0.00084109 0
1.00225 0.000777992 0
1.00207 0.000717342 0
1.0019 0.000659374 0
1.00175 0.000604142 0
1.00161 0.000551703 0
1.00148 0.000502023 0
1.00136 0.000455068 0
1.00126 0.000410701 0
1.00116 0.000368784 0
1.00108 0.000329185 0
1.001 0.000291768 0
1.00094 0.0002563 0
1.00088 0.000222544 0
1.00083 0.000190381 0
1.00079 0.00015969 0
1.00075 0.000130136 0
1.00073 0.000101383 0
1.00071 7.34851e-05 0
1.00069 4.64949e-05 0
1 0 0
1.00003 -0.000418728 0
1.00017 -0.000935272 0
1.00039 -0.00134519 0
1.00065 -0.00144405 0
1.00093 -0.00141012 0
1.00121 -0.00142169 0
1.00148 -0.00146203 0
1.00177 -0.00151443 0
1.00207 -0.0015702 0
1.00238 -0.00162066 0
1.0027 -0.00167335 0
1.00304 -0.00173582 0
1.00339 -0.00180138 0
1.00376 -0.00186339 0
1.00415 -0.00192279 0
1.00455 -0.00198053 0
1.00496 -0.00203259 0
1.00539 -0.00207491 0
1.00582 -0.0021057 0
1.00627 -0.00212317 0
1.00672 -0.00212462 0
1.00718 -0.00210736 0
1.00764 -0.0020691 0
1.00809 -0.00200758 0
1.00853 -0.00192076 0
1.00894 -0.00180661 0
1.00933 -0.00166531 0
1.00969 -0.00149707 0
1.01 -0.00130266 0
1.01028 -0.00108288 0
1.0105 -0.00084358 0
1.01067 -0.00059061 0
1.01077 -0.000329423 0
1.01081 -6.5467e-05 0
1.01079 0.000199693 0
1.01071 0.000464494 0
1.01057 0.000721657 0
1.01039 0.000963903 0
1.01014 0.00118559 0
1.00985 0.00138107 0
1.00951 0.00154962 0
1.00914 0.00169051 0
1.00874 0.00180451 0
1.00833 0.00189242 0
1.0079 0.00195383 0
1.00746 0.00198838 0
1.00702 0.00199944 0
1.00659 0.0019904 0
1.00617 0.00196381 0
1.00576 0.00192223 0
1.00536 0.00186778 0
1.00498 0.0018026 0
1.00461 0.00172882 0
1.00427 0.0016486 0
1.00394 0.00156402 0
1.00363 0.00147715 0
1.00334 0.00138922 0
1.00307 0.00130141 0
1.00283 0.00121462 0
1.00259 0.00112975 0
1.00238 0.00104734 0
1.00218 0.000967935 0
1.002 0.000891777 0
1.00184 0.00081912 0
1.00169 0.000750008 0
1.00155 0.000684485 0
1.00142 0.000622497 0
1.00131 0.000563989 0
1.00121 0.000508772 0
1.00112 0.00045666 0
1.00104 0.000407474 0
1.00096 0.00036104 0
1.0009 0.000317059 0
1.00084 0.000275233 0
1.0008 0.000235406 0
1.00076 0.000197422 0
1.00072 0.000160862 0
1.00069 0.000125308 0
1.00067 9.08234e-05 0
1.00066 5.74693e-05 0
1 0 0
1.00003 -0.000497432 0
1.00017 -0.00111091 0
1.00038 -0.00159788 0
1.00063 -0.00171582 0
1.0009 -0.00167642 0
1.00117 -0.00169142 0
1.00143 -0.00174092 0
1.00172 -0.00180504 0
1.00201 -0.00187359 0
1.00232 -0.00193636 0
1.00264 -0.00200221 0
1.00297 -0.00208001 0
1.00332 -0.00216202 0
1.00369 -0.00224052 0
1.00408 -0.00231631 0
1.00448 -0.00239016 0
1.00491 -0.00245757 0
1.00534 -0.00251402 0
1.00579 -0.00255714 0
1.00626 -0.00258456 0
1.00674 -0.00259289 0
1.00722 -0.00257874 0
1.0077 -0.00253813 0
1.00818 -0.00246706 0
1.00864 -0.00236247 0
1.00908 -0.00222128 0
1.0095 -0.00204691 0
1.00988 -0.00184278 0
1.01022 -0.00160924 0
1.01052 -0.00134662 0
1.01077 -0.00105611 0
1.01096 -0.00073892 0
1.01108 -0.000406506 0
1.01113 -7.03419e-05 0
1.0111 0.000262841 0
1.011 0.00058631 0
1.01084 0.000896599 0
1.01062 0.00119024 0
1.01036 0.00146161 0
1.01004 0.0017051 0
1.00968 0.00191544 0
1.00928 0.00208734 0
1.00885 0.00222373 0
1.00841 0.00232751 0
1.00796 0.00239904 0
1.0075 0.00243866 0
1.00704 0.00244906 0
1.00658 0.00243293 0
1.00614 0.00239427 0
1.00571 0.00233709 0
1.00529 0.00226491 0
1.0049 0.00218124 0
1.00453 0.00208819 0
1.00417 0.00198787 0
1.00384 0.00188277 0
1.00353 0.00177538 0
1.00324 0.00166717 0
1.00298 0.00155962 0
1.00273 0.00145373 0
1.0025 0.00135054 0
1.00229 0.00125063 0
1.0021 0.0011546 0
1.00192 0.00106272 0
1.00176 0.000975274 0
1.00161 0.000892266 0
1.00148 0.000813715 0
1.00136 0.000739528 0
1.00125 0.000669608 0
1.00115 0.000603714 0
1.00106 0.000541607 0
1.00098 0.000483058 0
1.00091 0.000427842 0
1.00085 0.000375594 0
1.0008 0.000325947 0
1.00075 0.00027871 0
1.00071 0.000233687 0
1.00068 0.000190379 0
1.00066 0.000148284 0
1.00064 0.00010747 0
1.00062 6.80051e-05 0
1 0 0
1.00003 -0.000573271 0
1.00016 -0.00128008 0
1.00036 -0.00184132 0
1.00061 -0.00197788 0
1.00087 -0.00193371 0
1.00112 -0.00195273 0
1.00138 -0.00201194 0
1.00165 -0.00208838 0
1.00194 -0.0021705 0
1.00224 -0.00224676 0
1.00255 -0.00232717 0
1.00289 -0.00242171 0
1.00324 -0.0025219 0
1.00361 -0.00261925 0
1.00399 -0.00271399 0
1.0044 -0.00280636 0
1.00483 -0.00289184 0
1.00528 -0.00296595 0
1.00575 -0.00302532 0
1.00624 -0.00306659 0
1.00674 -0.00308495 0
1.00725 -0.00307561 0
1.00776 -0.00303386 0
1.00827 -0.00295504 0
1.00876 -0.00283553 0
1.00924 -0.00267174 0
1.0097 -0.00246701 0
1.01012 -0.0022247 0
1.0105 -0.00194652 0
1.01083 -0.00163416 0
1.0111 -0.00128641 0
1.01131 -0.000902038 0
1.01145 -0.000495363 0
1.0115 -8.06906e-05 0
1.01148 0.000329804 0
1.01137 0.000723945 0
1.01118 0.00109792 0
1.01093 0.00144793 0
1.01062 0.00177065 0
1.01027 0.00206274 0
1.00988 0.00231522 0
1.00944 0.00251911 0
1.00898 0.00267805 0
1.0085 0.00279569 0
1.00801 0.00287401 0
1.00752 0.00291498 0
1.00704 0.00292138 0
1.00656 0.00289597 0
1.00609 0.00284329 0
1.00564 0.0027679 0
1.00521 0.00267495 0
1.0048 0.00256957 0
1.00442 0.00245427 0
1.00406 0.00233152 0
1.00373 0.002204 0
1.00341 0.00207442 0
1.00313 0.0019445 0
1.00286 0.001816 0
1.00262 0.00169008 0
1.00239 0.0015679 0
1.00218 0.00145003 0
1.002 0.00133705 0
1.00182 0.00122925 0
1.00167 0.00112692 0
1.00153 0.00103003 0
1.0014 0.000938543 0
1.00128 0.000852311 0
1.00118 0.000771174 0
1.00108 0.000694832 0
1.001 0.00062299 0
1.00092 0.00055536 0
1.00086 0.000491654 0
1.0008 0.000431439 0
1.00075 0.000374279 0
1.0007 0.000319941 0
1.00067 0.000268192 0
1.00064 0.000218446 0
1.00061 0.000170121 0
1.00059 0.000123288 0
1.00058 7.80165e-05 0
1 0 0
1.00003 -0.000645712 0
1.00015 -0.00144157 0
1.00034 -0.00207375 0
1.00057 -0.00222842 0
1.00083 -0.00218027 0
1.00107 -0.002204 0
1.00131 -0.00227355 0
1.00158 -0.0023629 0
1.00186 -0.00245944 0
1.00215 -0.0025506 0
1.00246 -0.00264718 0
1.00278 -0.00276001 0
1.00313 -0.00288028 0
1.0035 -0.00299918 0
1.00389 -0.00311596 0
1.0043 -0.00322985 0
1.00474 -0.0033368 0
1.00521 -0.00343275 0
1.00569 -0.00351269 0
1.0062 -0.00357161 0
1.00672 -0.0036025 0
1.00726 -0.00359837 0
1.00781 -0.00355613 0
1.00835 -0.00347271 0
1.00889 -0.00334532 0
1.00943 -0.00317119 0
1.00994 -0.00294484 0
1.01042 -0.00266078 0
1.01086 -0.00232538 0
1.01122 -0.00194499 0
1.01151 -0.00152609 0
1.01172 -0.00107515 0
1.01186 -0.000600156 0
1.01193 -0.000109089 0
1.01192 0.000386016 0
1.01181 0.000873119 0
1.01162 0.00133516 0
1.01133 0.00175508 0
1.01098 0.00213335 0
1.01057 0.00247045 0
1.01012 0.00275973 0
1.00963 0.00299457 0
1.00912 0.00317578 0
1.00858 0.00330417 0
1.00805 0.00338372 0
1.00752 0.00341842 0
1.007 0.00341418 0
1.00649 0.0033769 0
1.00601 0.00330954 0
1.00554 0.00321503 0
1.00509 0.00309954 0
1.00468 0.0029692 0
1.00429 0.00282802 0
1.00392 0.00267999 0
1.00358 0.00252778 0
1.00327 0.00237406 0
1.00299 0.0022208 0
1.00272 0.00206997 0
1.00248 0.00192291 0
1.00226 0.00178096 0
1.00206 0.00164461 0
1.00188 0.00151434 0
1.00171 0.00139042 0
1.00156 0.00127314 0
1.00142 0.0011624 0
1.0013 0.00105812 0
1.00119 0.000960044 0
1.00109 0.000867936 0
1.001 0.000781434 0
1.00092 0.000700174 0
1.00085 0.0006238 0
1.00079 0.000551954 0
1.00074 0.00048413 0
1.00069 0.000419822 0
1.00065 0.000358751 0
1.00061 0.000300638 0
1.00058 0.00024482 0
1.00056 0.00019063 0
1.00055 0.000138139 0
1.00053 8.74173e-05 0
1 0 0
1.00003 -0.000714136 0
1.00014 -0.00159403 0
1.00032 -0.00229324 0
1.00054 -0.00246529 0
1.00078 -0.00241402 0
1.001 -0.00244327 0
1.00124 -0.00252383 0
1.00149 -0.0026265 0
1.00176 -0.00273822 0
1.00204 -0.00284592 0
1.00234 -0.00296065 0
1.00266 -0.00309343 0
1.003 -0.00323575 0
1.00337 -0.0033791 0
1.00376 -0.0035214 0
1.00418 -0.00366061 0
1.00463 -0.00379332 0
1.00511 -0.00391612 0
1.00561 -0.00402151 0
1.00614 -0.00410197 0
1.00669 -0.00415031 0
1.00726 -0.00415929 0
1.00785 -0.00412481 0
1.00845 -0.0040428 0
1.00905 -0.00391069 0
1.00965 -0.00372596 0
1.01022 -0.00347573 0
1.01077 -0.00314713 0
1.01125 -0.0027502 0
1.01167 -0.00229498 0
1.01199 -0.00179536 0
1.01223 -0.00126524 0
1.01238 -0.000710458 0
1.01245 -0.000136892 0
1.01244 0.000447593 0
1.01233 0.00103513 0
1.01212 0.0015953 0
1.0118 0.00209771 0
1.0114 0.00254289 0
1.01093 0.00293138 0
1.01041 0.00325999 0
1.00986 0.00352549 0
1.00928 0.00372751 0
1.00869 0.00386563 0
1.0081 0.00394411 0
1.00751 0.00396719 0
1.00695 0.00394516 0
1.00641 0.0038883 0
1.0059 0.00379916 0
1.00541 0.0036803 0
1.00496 0.0035382 0
1.00453 0.00337936 0
1.00413 0.00320903 0
1.00376 0.00303244 0
1.00342 0.00285263 0
1.00311 0.00267263 0
1.00282 0.00249442 0
1.00256 0.00231998 0
1.00233 0.00215079 0
1.00211 0.0019883 0
1.00192 0.00183292 0
1.00174 0.00168508 0
1.00158 0.00154497 0
1.00144 0.00141277 0
1.00131 0.00128832 0
1.00119 0.00117144 0
1.00109 0.0010618 0
1.001 0.000959055 0
1.00091 0.000862765 0
1.00084 0.000772481 0
1.00077 0.000687772 0
1.00072 0.000608202 0
1.00067 0.000533193 0
1.00062 0.000462165 0
1.00058 0.000394788 0
1.00055 0.000330734 0
1.00053 0.00026926 0
1.00051 0.000209623 0
1.00049 0.000151889 0
1.00048 9.61228e-05 0
1 0 0
1.00003 -0.000777924 0
1.00013 -0.0017361 0
1.0003 -0.00249781 0
1.0005 -0.00268635 0
1.00072 -0.00263288 0
1.00093 -0.0026686 0
1.00115 -0.00276088 0
1.00139 -0.0028771 0
1.00164 -0.00300462 0
1.00191 -0.00313079 0
1.0022 -0.00326597 0
1.00251 -0.00342048 0
1.00285 -0.0035869 0
1.00321 -0.00375778 0
1.0036 -0.00392954 0
1.00403 -0.00409861 0
1.00448 -0.00426225 0
1.00498 -0.00441774 0
1.0055 -0.00455403 0
1.00606 -0.00466005 0
1.00665 -0.00473314 0
1.00728 -0.00477062 0
1.00792 -0.0047598 0
1.0086 -0.00468802 0
1.00927 -0.00455047 0
1.00993 -0.00434235 0
1.01055 -0.00405502 0
1.01113 -0.00367985 0
1.01167 -0.00322534 0
1.01215 -0.0027 0
1.01255 -0.00211445 0
1.01286 -0.00147928 0
1.01304 -0.000815841 0
1.0131 -0.000145458 0
1.01304 0.000530649 0
1.01288 0.00121126 0
1.01263 0.00186535 0
1.01228 0.00246185 0
1.01184 0.00299242 0
1.01133 0.0034487 0
1.01075 0.00382699 0
1.01014 0.00412362 0
1.00949 0.00434381 0
1.00885 0.00449277 0
1.0082 0.00457112 0
1.00755 0.00457951 0
1.00693 0.00453202 0
1.00634 0.00444272 0
1.00578 0.00431832 0
1.00527 0.00416551 0
1.00479 0.00399045 0
1.00434 0.00379929 0
1.00394 0.00359687 0
1.00356 0.00338803 0
1.00322 0.0031771 0
1.00291 0.00296843 0
1.00263 0.00276367 0
1.00238 0.00256451 0
1.00215 0.00237232 0
1.00194 0.00218849 0
1.00176 0.00201352 0
1.00159 0.00184791 0
1.00144 0.00169163 0
1.0013 0.00154464 0
1.00118 0.00140669 0
1.00108 0.0012775 0
1.00098 0.00115665 0
1.00089 0.00104369 0
1.00082 0.000938071 0
1.00075 0.000839235 0
1.00069 0.000746668 0
1.00064 0.000659859 0
1.00059 0.000578153 0
1.00055 0.000500896 0
1.00052 0.000427702 0
1.00049 0.000358183 0
1.00046 0.000291526 0
1.00045 0.000226914 0
1.00043 0.000164403 0
1.00042 0.000104048 0
1 0 0
1.00002 -0.000836372 0
1.00012 -0.00186629 0
1.00027 -0.00268541 0
1.00045 -0.00288939 0
1.00065 -0.00283466 0
1.00085 -0.00287765 0
1.00105 -0.00298226 0
1.00127 -0.0031124 0
1.00151 -0.0032565 0
1.00176 -0.003403 0
1.00204 -0.00356065 0
1.00234 -0.00373824 0
1.00266 -0.0039309 0
1.00302 -0.00413378 0
1.00341 -0.00433994 0
1.00384 -0.00454245 0
1.00431 -0.00474136 0
1.00481 -0.00493675 0
1.00536 -0.0051124 0
1.00596 -0.0052521 0
1.00659 -0.00535849 0
1.00727 -0.00543422 0
1.00798 -0.0054551 0
1.00872 -0.00539695 0
1.00947 -0.005255 0
1.01019 -0.00502446 0
1.01089 -0.00470177 0
1.01154 -0.00428333 0
1.01215 -0.00377571 0
1.01272 -0.00318545 0
1.01321 -0.00251051 0
1.01359 -0.0017488 0
1.01383 -0.000944723 0
1.01389 -0.000142681 0
1.01379 0.000654037 0
1.01358 0.00144214 0
1.01325 0.00219574 0
1.01284 0.00288895 0
1.01235 0.00350821 0
1.01176 0.00403997 0
1.01111 0.00447351 0
1.01041 0.00479812 0
1.00969 0.00502868 0
1.00897 0.00518006 0
1.00826 0.00525127 0
1.00756 0.00524134 0
1.00688 0.00516509 0
1.00623 0.00503738 0
1.00563 0.00487 0
1.00508 0.00467474 0
1.00458 0.00445879 0
1.00413 0.00422935 0
1.00371 0.00399028 0
1.00333 0.00374544 0
1.00299 0.0035003 0
1.00269 0.00326031 0
1.00242 0.00302692 0
1.00217 0.00280157 0
1.00195 0.00258544 0
1.00175 0.00237969 0
1.00158 0.00218482 0
1.00142 0.00200133 0
1.00128 0.00182894 0
1.00115 0.00166738 0
1.00104 0.00151626 0
1.00094 0.0013752 0
1.00086 0.00124363 0
1.00078 0.00112096 0
1.00071 0.00100655 0
1.00065 0.000899723 0
1.0006 0.000799873 0
1.00055 0.000706391 0
1.00051 0.000618548 0