<?xml version="1.0"?>
<VTKFile type="UnstructuredGrid">
  <UnstructuredGrid>
  <Piece NumberOfPoints="961"  NumberOfCells="225">
    <Points>
      <DataArray type="Float64" NumberOfComponents="3" format="ascii">
0 0 0
0.0333333 0 0
0.0666667 0 0
0.1 0 0
0.133333 0 0
0.166667 0 0
0.2 0 0
0.233333 0 0
0.266667 0 0
0.3 0 0
0.333333 0 0
0.366667 0 0
0.4 0 0
0.433333 0 0
0.466667 0 0
0.5 0 0
0.533333 0 0
0.566667 0 0
0.6 0 0
0.633333 0 0
0.666667 0 0
0.7 0 0
0.733333 0 0
0.766667 0 0
0.8 0 0
0.833333 0 0
0.866667 0 0
0.9 0 0
0.933333 0 0
0.966667 0 0
1 0 0
0 0.0333333 0
0.0333333 0.0333333 0
0.0666667 0.0333333 0
0.1 0.0333333 0
0.133333 0.0333333 0
0.166667 0.0333333 0
0.2 0.0333333 0
0.233333 0.0333333 0
0.266667 0.0333333 0
0.3 0.0333333 0
0.333333 0.0333333 0
0.366667 0.0333333 0
0.4 0.0333333 0
0.433333 0.0333333 0
0.466667 0.0333333 0
0.5 0.0333333 0
0.533333 0.0333333 0
0.566667 0.0333333 0
0.6 0.0333333 0
0.633333 0.0333333 0
0.666667 0.0333333 0
0.7 0.0333333 0
0.733333 0.0333333 0
0.766667 0.0333333 0
0.8 0.0333333 0
0.833333 0.0333333 0
0.866667 0.0333333 0
0.9 0.0333333 0
0.933333 0.0333333 0
0.966667 0.0333333 0
1 0.0333333 0
0 0.0666667 0
0.0333333 0.0666667 0
0.0666667 0.0666667 0
0.1 0.0666667 0
0.133333 0.0666667 0
0.166667 0.0666667 0
0.2 0.0666667 0
0.233333 0.0666667 0
0.266667 0.0666667 0
0.3 0.0666667 0
0.333333 0.0666667 0
0.366667 0.0666667 0
0.4 0.0666667 0
0.433333 0.0666667 0
0.466667 0.0666667 0
0.5 0.0666667 0
0.533333 0.0666667 0
0.566667 0.0666667 0
0.6 0.0666667 0
0.633333 0.0666667 0
0.666667 0.0666667 0
0.7 0.0666667 0
0.733333 0.0666667 0
0.766667 0.0666667 0
0.8 0.0666667 0
0.833333 0.0666667 0
0.866667 0.0666667 0
0.9 0.0666667 0
0.933333 0.0666667 0
0.966667 0.0666667 0
1 0.0666667 0
0 0.1 0
0.0333333 0.1 0
0.0666667 0.1 0
0.1 0.1 0
0.133333 0.1 0
0.166667 0.1 0
0.2 0.1 0
0.233333 0.1 0
0.266667 0.1 0
0.3 0.1 0
0.333333 0.1 0
0.366667 0.1 0
0.4 0.1 0
0.433333 0.1 0
0.466667 0.1 0
0.5 0.1 0
0.533333 0.1 0
0.566667 0.1 0
0.6 0.1 0
0.633333 0.1 0
0.666667 0.1 0
0.7 0.1 0
0.733333 0.1 0
0.766667 0.1 0
0.8 0.1 0
0.833333 0.1 0
0.866667 0.1 0
0.9 0.1 0
0.933333 0.1 0
0.966667 0.1 0
1 0.1 0
0 0.133333 0
0.0333333 0.133333 0
0.0666667 0.133333 0
0.1 0.133333 0
0.133333 0.133333 0
0.166667 0.133333 0
0.2 0.133333 0
0.233333 0.133333 0
0.266667 0.133333 0
0.3 0.133333 0
0.333333 0.133333 0
0.366667 0.133333 0
0.4 0.133333 0
0.433333 0.133333 0
0.466667 0.133333 0
0.5 0.133333 0
0.533333 0.133333 0
0.566667 0.133333 0
0.6 0.133333 0
0.633333 0.133333 0
0.666667 0.133333 0
0.7 0.133333 0
0.733333 0.133333 0
0.766667 0.133333 0
0.8 0.133333 0
0.833333 0.133333 0
0.866667 0.133333 0
0.9 0.133333 0
0.933333 0.133333 0
0.966667 0.133333 0
1 0.133333 0
0 0.166667 0
0.0333333 0.166667 0
0.0666667 0.166667 0
0.1 0.166667 0
0.133333 0.166667 0
0.166667 0.166667 0
0.2 0.166667 0
0.233333 0.166667 0
0.266667 0.166667 0
0.3 0.166667 0
0.333333 0.166667 0
0.366667 0.166667 0
0.4 0.166667 0
0.433333 0.166667 0
0.466667 0.166667 0
0.5 0.166667 0
0.533333 0.166667 0
0.566667 0.166667 0
0.6 0.166667 0
0.633333 0.166667 0
0.666667 0.166667 0
0.7 0.166667 0
0.733333 0.166667 0
0.766667 0.166667 0
0.8 0.166667 0
0.833333 0.166667 0
0.866667 0.166667 0
0.9 0.166667 0
0.933333 0.166667 0
0.966667 0.166667 0
1 0.166667 0
0 0.2 0
0.0333333 0.2 0
0.0666667 0.2 0
0.1 0.2 0
0.133333 0.2 0
0.166667 0.2 0
0.2 0.2 0
0.233333 0.2 0
0.266667 0.2 0
0.3 0.2 0
0.333333 0.2 0
0.366667 0.2 0
0.4 0.2 0
0.433333 0.2 0
0.466667 0.2 0
0.5 0.2 0
0.533333 0.2 0
0.566667 0.2 0
0.6 0.2 0
0.633333 0.2 0
0.666667 0.2 0
0.7 0.2 0
0.733333 0.2 0
0.766667 0.2 0
0.8 0.2 0
0.833333 0.2 0
0.866667 0.2 0
0.9 0.2 0
0.933333 0.2 0
0.966667 0.2 0
1 0.2 0
0 0.233333 0
0.0333333 0.233333 0
0.0666667 0.233333 0
0.1 0.233333 0
0.133333 0.233333 0
0.166667 0.233333 0
0.2 0.233333 0
0.233333 0.233333 0
0.266667 0.233333 0
0.3 0.233333 0
0.333333 0.233333 0
0.366667 0.233333 0
0.4 0.233333 0
0.433333 0.233333 0
0.466667 0.233333 0
0.5 0.233333 0
0.533333 0.233333 0
0.566667 0.233333 0
0.6 0.233333 0
0.633333 0.233333 0
0.666667 0.233333 0
0.7 0.233333 0
0.733333 0.233333 0
0.766667 0.233333 0
0.8 0.233333 0
0.833333 0.233333 0
0.866667 0.233333 0
0.9 0.233333 0
0.933333 0.233333 0
0.966667 0.233333 0
1 0.233333 0
0 0.266667 0
0.0333333 0.266667 0
0.0666667 0.266667 0
0.1 0.266667 0
0.133333 0.266667 0
0.166667 0.266667 0
0.2 0.266667 0
0.233333 0.266667 0
0.266667 0.266667 0
0.3 0.266667 0
0.333333 0.266667 0
0.366667 0.266667 0
0.4 0.266667 0
0.433333 0.266667 0
0.466667 0.266667 0
0.5 0.266667 0
0.533333 0.266667 0
0.566667 0.266667 0
0.6 0.266667 0
0.633333 0.266667 0
0.666667 0.266667 0
0.7 0.266667 0
0.733333 0.266667 0
0.766667 0.266667 0
0.8 0.266667 0
0.833333 0.266667 0
0.866667 0.266667 0
0.9 0.266667 0
0.933333 0.266667 0
0.966667 0.266667 0
1 0.266667 0
0 0.3 0
0.0333333 0.3 0
0.0666667 0.3 0
0.1 0.3 0
0.133333 0.3 0
0.166667 0.3 0
0.2 0.3 0
0.233333 0.3 0
0.266667 0.3 0
0.3 0.3 0
0.333333 0.3 0
0.366667 0.3 0
0.4 0.3 0
0.433333 0.3 0
0.466667 0.3 0
0.5 0.3 0
0.533333 0.3 0
0.566667 0.3 0
0.6 0.3 0
0.633333 0.3 0
0.666667 0.3 0
0.7 0.3 0
0.733333 0.3 0
0.766667 0.3 0
0.8 0.3 0
0.833333 0.3 0
0.866667 0.3 0
0.9 0.3 0
0.933333 0.3 0
0.966667 0.3 0
1 0.3 0
0 0.333333 0
0.0333333 0.333333 0
0.0666667 0.333333 0
0.1 0.333333 0
0.133333 0.333333 0
0.166667 0.333333 0
0.2 0.333333 0
0.233333 0.333333 0
0.266667 0.333333 0
0.3 0.333333 0
0.333333 0.333333 0
0.366667 0.333333 0
0.4 0.333333 0
0.433333 0.333333 0
0.466667 0.333333 0
0.5 0.333333 0
0.533333 0.333333 0
0.566667 0.333333 0
0.6 0.333333 0
0.633333 0.333333 0
0.666667 0.333333 0
0.7 0.333333 0
0.733333 0.333333 0
0.766667 0.333333 0
0.8 0.333333 0
0.833333 0.333333 0
0.866667 0.333333 0
0.9 0.333333 0
0.933333 0.333333 0
0.966667 0.333333 0
1 0.333333 0
0 0.366667 0
0.0333333 0.366667 0
0.0666667 0.366667 0
0.1 0.366667 0
0.133333 0.366667 0
0.166667 0.366667 0
0.2 0.366667 0
0.233333 0.366667 0
0.266667 0.366667 0
0.3 0.366667 0
0.333333 0.366667 0
0.366667 0.366667 0
0.4 0.366667 0
0.433333 0.366667 0
0.466667 0.366667 0
0.5 0.366667 0
0.533333 0.366667 0
0.566667 0.366667 0
0.6 0.366667 0
0.633333 0.366667 0
0.666667 0.366667 0
0.7 0.366667 0
0.733333 0.366667 0
0.766667 0.366667 0
0.8 0.366667 0
0.833333 0.366667 0
0.866667 0.366667 0
0.9 0.366667 0
0.933333 0.366667 0
0.966667 0.366667 0
1 0.366667 0
0 0.4 0
0.0333333 0.4 0
0.0666667 0.4 0
0.1 0.4 0
0.133333 0.4 0
0.166667 0.4 0
0.2 0.4 0
0.233333 0.4 0
0.266667 0.4 0
0.3 0.4 0
0.333333 0.4 0
0.366667 0.4 0
0.4 0.4 0
0.433333 0.4 0
0.466667 0.4 0
0.5 0.4 0
0.533333 0.4 0
0.566667 0.4 0
0.6 0.4 0
0.633333 0.4 0
0.666667 0.4 0
0.7 0.4 0
0.733333 0.4 0
0.766667 0.4 0
0.8 0.4 0
0.833333 0.4 0
0.866667 0.4 0
0.9 0.4 0
0.933333 0.4 0
0.966667 0.4 0
1 0.4 0
0 0.433333 0
0.0333333 0.433333 0
0.0666667 0.433333 0
0.1 0.433333 0
0.133333 0.433333 0
0.166667 0.433333 0
0.2 0.433333 0
0.233333 0.433333 0
0.266667 0.433333 0
0.3 0.433333 0
0.333333 0.433333 0
0.366667 0.433333 0
0.4 0.433333 0
0.433333 0.433333 0
0.466667 0.433333 0
0.5 0.433333 0
0.533333 0.433333 0
0.566667 0.433333 0
0.6 0.433333 0
0.633333 0.433333 0
0.666667 0.433333 0
0.7 0.433333 0
0.733333 0.433333 0
0.766667 0.433333 0
0.8 0.433333 0
0.833333 0.433333 0
0.866667 0.433333 0
0.9 0.433333 0
0.933333 0.433333 0
0.966667 0.433333 0
1 0.433333 0
0 0.466667 0
0.0333333 0.466667 0
0.0666667 0.466667 0
0.1 0.466667 0
0.133333 0.466667 0
0.166667 0.466667 0
0.2 0.466667 0
0.233333 0.466667 0
0.266667 0.466667 0
0.3 0.466667 0
0.333333 0.466667 0
0.366667 0.466667 0
0.4 0.466667 0
0.433333 0.466667 0
0.466667 0.466667 0
0.5 0.466667 0
0.533333 0.466667 0
0.566667 0.466667 0
0.6 0.466667 0
0.633333 0.466667 0
0.666667 0.466667 0
0.7 0.466667 0
0.733333 0.466667 0
0.766667 0.466667 0
0.8 0.466667 0
0.833333 0.466667 0
0.866667 0.466667 0
0.9 0.466667 0
0.933333 0.466667 0
0.966667 0.466667 0
1 0.466667 0
0 0.5 0
0.0333333 0.5 0
0.0666667 0.5 0
0.1 0.5 0
0.133333 0.5 0
0.166667 0.5 0
0.2 0.5 0
0.233333 0.5 0
0.266667 0.5 0
0.3 0.5 0
0.333333 0.5 0
0.366667 0.5 0
0.4 0.5 0
0.433333 0.5 0
0.466667 0.5 0
0.5 0.5 0
0.533333 0.5 0
0.566667 0.5 0
0.6 0.5 0
0.633333 0.5 0
0.666667 0.5 0
0.7 0.5 0
0.733333 0.5 0
0.766667 0.5 0
0.8 0.5 0
0.833333 0.5 0
0.866667 0.5 0
0.9 0.5 0
0.933333 0.5 0
0.966667 0.5 0
1 0.5 0
0 0.533333 0
0.0333333 0.533333 0
0.0666667 0.533333 0
0.1 0.533333 0
0.133333 0.533333 0
0.166667 0.533333 0
0.2 0.533333 0
0.233333 0.533333 0
0.266667 0.533333 0
0.3 0.533333 0
0.333333 0.533333 0
0.366667 0.533333 0
0.4 0.533333 0
0.433333 0.533333 0
0.466667 0.533333 0
0.5 0.533333 0
0.533333 0.533333 0
0.566667 0.533333 0
0.6 0.533333 0
0.633333 0.533333 0
0.666667 0.533333 0
0.7 0.533333 0
0.733333 0.533333 0
0.766667 0.533333 0
0.8 0.533333 0
0.833333 0.533333 0
0.866667 0.533333 0
0.9 0.533333 0
0.933333 0.533333 0
0.966667 0.533333 0
1 0.533333 0
0 0.566667 0
0.0333333 0.566667 0
0.0666667 0.566667 0
0.1 0.566667 0
0.133333 0.566667 0
0.166667 0.566667 0
0.2 0.566667 0
0.233333 0.566667 0
0.266667 0.566667 0
0.3 0.566667 0
0.333333 0.566667 0
0.366667 0.566667 0
0.4 0.566667 0
0.433333 0.566667 0
0.466667 0.566667 0
0.5 0.566667 0
0.533333 0.566667 0
0.566667 0.566667 0
0.6 0.566667 0
0.633333 0.566667 0
0.666667 0.566667 0
0.7 0.566667 0
0.733333 0.566667 0
0.766667 0.566667 0
0.8 0.566667 0
0.833333 0.566667 0
0.866667 0.566667 0
0.9 0.566667 0
0.933333 0.566667 0
0.966667 0.566667 0
1 0.566667 0
0 0.6 0
0.0333333 0.6 0
0.0666667 0.6 0
0.1 0.6 0
0.133333 0.6 0
0.166667 0.6 0
0.2 0.6 0
0.233333 0.6 0
0.266667 0.6 0
0.3 0.6 0
0.333333 0.6 0
0.366667 0.6 0
0.4 0.6 0
0.433333 0.6 0
0.466667 0.6 0
0.5 0.6 0
0.533333 0.6 0
0.566667 0.6 0
0.6 0.6 0
0.633333 0.6 0
0.666667 0.6 0
0.7 0.6 0
0.733333 0.6 0
0.766667 0.6 0
0.8 0.6 0
0.833333 0.6 0
0.866667 0.6 0
0.9 0.6 0
0.933333 0.6 0
0.966667 0.6 0
1 0.6 0
0 0.633333 0
0.0333333 0.633333 0
0.0666667 0.633333 0
0.1 0.633333 0
0.133333 0.633333 0
0.166667 0.633333 0
0.2 0.633333 0
0.233333 0.633333 0
0.266667 0.633333 0
[...]
    <PointData>
      <DataArray type="Float64" NumberOfComponents="3" Name="Velocity" format="ascii">
0 0 0
0 0 0
0 0 0
0 0 0
0 0 0
0 0 0
0 0 0
0 0 0
0 0 0
0 0 0
0 0 0
0 0 0
0 0 0
0 0 0
0 0 0
0 0 0
0 0 0
0 0 0
0 0 0
0 0 0
0 0 0
0 0 0
0 0 0
0 0 0
0 0 0
0 0 0
0 0 0
0 0 0
0 0 0
0 0 0
0 0 0
0 0 0
-0.000495959 0.000448906 0
-0.00151322 0.0010095 0
-0.00319937 0.00156064 0
-0.00570202 0.00198119 0
-0.00867356 0.00223034 0
-0.0117664 0.00226728 0
-0.0148534 0.00216948 0
-0.0178076 0.00201441 0
-0.0205189 0.0018021 0
-0.0228771 0.00153257 0
-0.024843 0.00122739 0
-0.026377 0.000908124 0
-0.0274521 0.000575545 0
-0.0280414 0.000230434 0
-0.0281371 -0.000120253 0
-0.0277317 -0.000469557 0
-0.0268417 -0.000805807 0
-0.0254837 -0.00111733 0
-0.0237003 -0.00140429 0
-0.0215343 -0.00166684 0
-0.0190402 -0.00187877 0
-0.0162722 -0.00201383 0
-0.0133539 -0.00208541 0
-0.010409 -0.00210688 0
-0.0075349 -0.00201191 0
-0.00482937 -0.00173416 0
-0.00259916 -0.00131646 0
-0.00115107 -0.000801623 0
-0.000334786 -0.000319513 0
0 0 0
0 0 0
-0.000759977 0.0011692 0
-0.00320239 0.00288782 0
-0.00701349 0.00459384 0
-0.0118795 0.00572521 0
-0.0173734 0.00634637 0
-0.0230681 0.0065218 0
-0.0287048 0.00635 0
-0.0340249 0.00592948 0
-0.0388807 0.00531355 0
-0.0431241 0.00455549 0
-0.046676 0.0036918 0
-0.0494572 0.00275897 0
-0.0514118 0.00176979 0
-0.0524844 0.000737046 0
-0.0526595 -0.000314138 0
-0.0519217 -0.00135865 0
-0.0502973 -0.00236751 0
-0.0478126 -0.00331175 0
-0.0445514 -0.00417044 0
-0.0405977 -0.00492267 0
-0.0360676 -0.00553559 0
-0.0310774 -0.00597635 0
-0.0257927 -0.00620463 0
-0.0203788 -0.00618012 0
-0.0150914 -0.00584722 0
-0.010186 -0.00515034 0
-0.00596231 -0.00403421 0
-0.00272016 -0.00244359 0
-0.000664435 -0.00091875 0
0 0 0
0 0 0
-0.00135645 0.00308573 0
-0.00531257 0.00664685 0
-0.0111217 0.00986539 0
-0.0180373 0.0119234 0
-0.0256255 0.0129989 0
-0.0334526 0.0132698 0
-0.0411662 0.0128904 0
-0.0484139 0.012015 0
-0.055028 0.0107598 0
-0.0608412 0.00924104 0
-0.0657286 0.00751058 0
-0.0695654 0.00562034 0
-0.072271 0.0036062 0
-0.0737648 0.00150403 0
-0.0740228 -0.000635905 0
-0.0730212 -0.00276337 0
-0.0707969 -0.00482054 0
-0.0673869 -0.0067496 0
-0.0629073 -0.00849521 0
-0.0574742 -0.010002 0
-0.051266 -0.0112273 0
-0.0444609 -0.0121282 0
-0.0372456 -0.0126125 0
-0.0298068 -0.0125881 0
-0.0225015 -0.0119787 0
-0.0156867 -0.0107081 0
-0.00964067 -0.00865102 0
-0.00464169 -0.00568208 0
-0.00124353 -0.00254914 0
0 0 0
0 0 0
-0.00284978 0.00712337 0
-0.00808882 0.0132984 0
-0.0152035 0.0181411 0
-0.0236801 0.0212672 0
-0.0329557 0.0228387 0
-0.0424677 0.0230174 0
-0.0518498 0.0221395 0
-0.0607363 0.0205407 0
-0.0689037 0.0183664 0
-0.0761288 0.0157615 0
-0.0822302 0.0128011 0
-0.0870267 0.00956003 0
-0.0904215 0.00610825 0
-0.0923179 0.00251559 0
-0.0926824 -0.00113981 0
-0.0914812 -0.00477982 0
-0.0887706 -0.00830033 0
-0.0846069 -0.0115972 0
-0.0791221 -0.0145754 0
-0.0724483 -0.0171395 0
-0.064819 -0.0192107 0
-0.0564678 -0.0207099 0
-0.0476423 -0.0215638 0
-0.0385901 -0.0216992 0
-0.0295969 -0.0208793 0
-0.0209482 -0.0188672 0
-0.0131855 -0.0156646 0
-0.00685008 -0.0112733 0
-0.00232666 -0.0059621 0
0 0 0
0 0 0
-0.00399868 0.011676 0
-0.0105722 0.0207145 0
-0.0191495 0.0272545 0
-0.0291596 0.0314352 0
-0.0399606 0.0334771 0
-0.0509103 0.0336011 0
-0.0616826 0.0322809 0
-0.0719514 0.0299905 0
-0.0814346 0.0268869 0
-0.0898498 0.0231271 0
-0.0969834 0.0188262 0
-0.102621 0.0140993 0
-0.106643 0.00904837 0
-0.108929 0.00377554 0
-0.109425 -0.0015998 0
-0.108079 -0.00695823 0
-0.10496 -0.0121406 0
-0.100133 -0.0169877 0
-0.0937579 -0.0213595 0
-0.085991 -0.0251162 0
-0.077108 -0.0281276 0
-0.0673841 -0.0302638 0
-0.0571434 -0.0314889 0
-0.0467101 -0.031767 0
-0.0362934 -0.0307483 0
-0.0261024 -0.0280828 0
-0.0167939 -0.0237522 0
-0.00902451 -0.0177384 0
-0.00326846 -0.009876 0
0 0 0
0 0 0
-0.00356186 0.0151375 0
-0.0118036 0.0267668 0
-0.0228505 0.0350391 0
-0.0348278 0.0401059 0
-0.0472364 0.0425257 0
-0.0595777 0.042857 0
-0.0715916 0.0414983 0
-0.0830185 0.0388481 0
-0.0935475 0.0350752 0
-0.102867 0.0303482 0
-0.110791 0.024849 0
-0.11713 0.0187593 0
-0.121716 0.012199 0
-0.124381 0.00528769 0
-0.125037 -0.00178984 0
-0.123593 -0.00884887 0
-0.120105 -0.015675 0
-0.114627 -0.0220539 0
-0.107376 -0.0277963 0
-0.0985735 -0.032713 0
-0.0885145 -0.0366197 0
-0.0774957 -0.0393322 0
-0.0659095 -0.0408181 0
-0.0541479 -0.041045 0
-0.0425065 -0.0397851 0
-0.031281 -0.0368101 0
-0.0206629 -0.031591 0
-0.0108442 -0.0235985 0
-0.00342358 -0.0130092 0
0 0 0
0 0 0
-0.00321296 0.021261 0
-0.0125663 0.0365136 0
-0.0253064 0.046657 0
-0.0386794 0.0525903 0
-0.0524017 0.0552453 0
-0.0661896 0.0555539 0
-0.0796699 0.0538464 0
-0.0924688 0.0504529 0
-0.104267 0.045609 0
-0.114743 0.0395505 0
-0.123701 0.0324906 0
-0.130942 0.0246428 0
-0.136252 0.0161465 0
-0.139418 0.00714114 0
-0.140322 -0.0021239 0
-0.138845 -0.0113993 0
-0.13503 -0.0203833 0
-0.128917 -0.0287742 0
-0.120764 -0.0363174 0
-0.110826 -0.0427585 0
-0.0994372 -0.0478672 0
-0.0869295 -0.0514134 0
-0.0737563 -0.0533066 0
-0.060371 -0.0534566 0
-0.0473009 -0.0518213 0
-0.0350731 -0.0483587 0
-0.0234228 -0.0422281 0
-0.0120851 -0.0325887 0
-0.00347305 -0.0187446 0
0 0 0
0 0 0
-0.0046256 0.0337996 0
-0.0136434 0.0550134 0
-0.0255168 0.0672703 0
-0.0387093 0.074199 0
-0.0530745 0.0768967 0
-0.0684659 0.0764605 0
-0.0840101 0.0733797 0
-0.0988335 0.068144 0
-0.112616 0.0611663 0
-0.125038 0.0528597 0
-0.135761 0.0433724 0
-0.144446 0.0328523 0
-0.150864 0.0214772 0
-0.154782 0.00942498 0
-0.156085 -0.00301592 0
-0.154657 -0.015557 0
-0.150555 -0.027745 0
-0.143835 -0.0391268 0
-0.134707 -0.0493547 0
-0.12338 -0.0580812 0
-0.110275 -0.0650503 0
-0.095812 -0.0700058 0
-0.0804996 -0.0727099 0
-0.064847 -0.0729248 0
-0.0497409 -0.0706882 0
-0.0360682 -0.0660378 0
-0.0237039 -0.0587108 0
-0.0125232 -0.0484443 0
-0.00409792 -0.030465 0
0 0 0
0 0 0
-0.00533605 0.0433856 0
-0.0132909 0.0695227 0
-0.0237898 0.0840233 0
-0.0367582 0.0924994 0
-0.0517745 0.0959291 0
-0.0684175 0.0952902 0
-0.0855231 0.0913139 0
-0.101927 0.084731 0
-0.117287 0.076068 0
-0.131259 0.0658513 0
-0.143392 0.0541906 0
-0.153232 0.0411952 0
-0.16055 0.027107 0
-0.165116 0.0121678 0
-0.166821 -0.0032889 0
-0.165558 -0.0189294 0
-0.161382 -0.034178 0
-0.154347 -0.0484587 0
-0.14461 -0.0613177 0
-0.132324 -0.0723008 0
-0.117962 -0.0810977 0
-0.101995 -0.087398 0
-0.0849837 -0.0908265 0
-0.0674907 -0.0910083 0
-0.0506252 -0.0879429 0
-0.0354964 -0.0816301 0
-0.0224881 -0.0725695 0
-0.011984 -0.0612605 0
-0.00436193 -0.0397288 0
0 0 0
0 0 0
-0.0028806 0.0406512 0
-0.00976507 0.0672981 0
-0.0204337 0.0840606 0
-0.0346667 0.0950588 0
-0.0510215 0.100791 0
-0.0680555 0.101757 0
-0.0851195 0.0988642 0
-0.101564 0.0930232 0
-0.116969 0.084635 0
-0.130914 0.0741008 0
-0.143015 0.0616417 0
-0.152888 0.0474791 0
-0.160312 0.0319516 0
-0.165066 0.015398 0
-0.167029 -0.00176581 0
-0.166077 -0.0191239 0
-0.162209 -0.0360998 0
-0.155421 -0.0521168 0
-0.145879 -0.0666156 0
-0.133748 -0.0790369 0
-0.119431 -0.0889386 0
-0.103328 -0.0958786 0
-0.0860532 -0.0994548 0
-0.0682175 -0.0992653 0
-0.0507521 -0.0951423 0
-0.0345881 -0.0869183 0
-0.0207576 -0.0753347 0
-0.0102929 -0.0611327 0
-0.00332884 -0.038094 0
0 0 0
0 0 0
-0.001063 0.0342137 0
-0.00761953 0.060053 0
-0.0189005 0.0790534 0
-0.0341368 0.0927506 0
-0.0511902 0.101174 0
-0.0679227 0.104354 0
-0.0842354 0.103234 0
-0.100029 0.0987584 0
-0.114805 0.0911892 0
-0.128064 0.0807895 0
-0.139535 0.0679516 0
-0.148948 0.0530679 0
-0.156099 0.0365686 0
-0.160784 0.018884 0
-0.162873 0.000513217 0
-0.162238 -0.0180444 0
-0.158833 -0.0362527 0
-0.152615 -0.0535754 0
-0.143746 -0.0693807 0
-0.132389 -0.0830368 0
-0.118833 -0.0939349 0
-0.103367 -0.101466 0
-0.0866145 -0.105207 0
-0.0691985 -0.104733 0
-0.0517916 -0.099688 0
-0.0350664 -0.0897165 0
-0.0205207 -0.0754398 0
-0.0096525 -0.0574793 0
-0.00272464 -0.0332083 0
0 0 0
0 0 0
-0.00368696 0.0326902 0
-0.0114079 0.0595009 0
-0.0226424 0.0806732 0
-0.0368703 0.0964482 0
-0.0526554 0.106769 0
-0.0685619 0.111578 0
-0.0843067 0.111628 0
-0.0996068 0.107674 0
-0.113936 0.100052 0
-0.126769 0.0890989 0
-0.137856 0.0753462 0
-0.146947 0.0593258 0
-0.153862 0.0415157 0
-0.158419 0.022394 0
-0.16052 0.00250804 0
-0.160062 -0.0175948 0
-0.157051 -0.0373789 0
-0.15149 -0.0563088 0
-0.143446 -0.073745 0
-0.132984 -0.0890478 0
-0.12032 -0.101449 0
-0.105664 -0.11018 0
-0.0895739 -0.114695 0
-0.0726051 -0.114448 0
-0.0554134 -0.108981 0
-0.0386545 -0.0978389 0
-0.023786 -0.0813185 0
-0.0122651 -0.0597186 0
-0.00427533 -0.0327191 0
0 0 0
0 0 0
-0.00687457 0.0354484 0
-0.0160806 0.0651443 0
-0.0274038 0.0889073 0
-0.0406296 0.106558 0
-0.0552397 0.118194 0
-0.0707159 0.123918 0
-0.0863853 0.124327 0
-0.101575 0.120025 0
-0.115768 0.111525 0
-0.128446 0.0993456 0
-0.139369 0.0841182 0
-0.148297 0.0664758 0
-0.155081 0.0469237 0
-0.159571 0.0259673 0
-0.161704 0.00416367 0
-0.161418 -0.0179299 0
-0.158765 -0.0397547 0
-0.153799 -0.0607522 0
-0.146475 -0.0802747 0
-0.136749 -0.0976749 0
-0.124757 -0.112058 0
-0.110638 -0.12253 0
-0.0948624 -0.128363 0
-0.0779039 -0.128831 0
-0.0605095 -0.123349 0
-0.0434265 -0.111335 0
-0.0279608 -0.0927438 0
-0.0154184 -0.0675303 0
-0.00602344 -0.0363853 0
0 0 0
0 0 0
-0.00674786 0.0418561 0
-0.0165883 0.0764856 0
-0.0289288 0.103743 0
-0.0431772 0.123484 0
-0.058766 0.136071 0
-0.0751277 0.141864 0
-0.0915232 0.141613 0
-0.107213 0.136064 0
-0.121706 0.12591 0
-0.134508 0.111846 0
-0.145462 0.0945607 0
-0.154408 0.0747415 0
-0.161236 0.052924 0
-0.165836 0.0296433 0
-0.168163 0.00542511 0
-0.168171 -0.0192046 0
-0.165875 -0.0436562 0
-0.161294 -0.0673404 0
-0.154332 -0.0895363 0
-0.144897 -0.109523 0
-0.133013 -0.126341 0
-0.118706 -0.139028 0
-0.102411 -0.146658 0
-0.0845618 -0.148302 0
-0.0659721 -0.143115 0
-0.0474563 -0.130253 0
-0.0304528 -0.109489 0
-0.0164002 -0.0805943 0
-0.00601149 -0.0439659 0
0 0 0
0 0 0
-0.00552308 0.0495234 0
-0.0157015 0.0898413 0
-0.0293456 0.120938 0
-0.0452655 0.142797 0
-0.0624805 0.15611 0
-0.08001 0.16157 0
-0.0971719 0.160196 0
-0.113284 0.153009 0
-0.12793 0.140889 0
-0.140693 0.124713 0
-0.151512 0.105207 0
-0.160324 0.0830965 0
-0.167081 0.0589399 0
-0.171734 0.0332953 0
-0.17425 0.00664208 0
-0.174595 -0.0205405 0
-0.172722 -0.0476539 0
-0.16858 -0.0741 0
-0.162035 -0.0990852 0
-0.152953 -0.121816 0
-0.141245 -0.141284 0
-0.126823 -0.156482 0
-0.110053 -0.166246 0
-0.0913022 -0.169413 0
-0.0714283 -0.164809 0
-0.0512911 -0.151259 0
-0.0325475 -0.128323 0
-0.0168546 -0.0955576 0
-0.0055571 -0.0528283 0
0 0 0
0 0 0
-0.00541649 0.0560607 0
-0.0161912 0.101528 0
-0.030782 0.136247 0
-0.0476467 0.160063 0
-0.0656296 0.174026 0
-0.0835753 0.179185 0
-0.100783 0.176787 0
-0.116552 0.168081 0
-0.130623 0.154145 0
-0.142737 0.136058 0
-0.152893 0.11459 0
-0.16109 0.0905146 0
-0.167371 0.064395 0
-0.171782 0.0367969 0
-0.174316 0.00816427 0
-0.174966 -0.0210592 0
-0.173644 -0.0503182 0
-0.170263 -0.0790576 0
-0.164602 -0.106477 0
-0.156443 -0.131775 0
-0.145613 -0.153875 0
-0.131942 -0.1717 0
-0.115622 -0.183798 0
-0.0968485 -0.188717 0
-0.0765054 -0.184957 0
-0.0554783 -0.171018 0
-0.0355307 -0.146016 0
-0.018426 -0.109068 0
-0.00597787 -0.0603399 0
0 0 0
0 0 0
-0.00584658 0.0628149 0
-0.0173523 0.113337 0
-0.0327159 0.151421 0
-0.0501359 0.176918 0
-0.0683336 0.191241 0
-0.0860302 0.195799 0
-0.102563 0.192133 0
-0.11727 0.181782 0
-0.130065 0.166003 0
-0.140862 0.146053 0
-0.149751 0.122763 0
-0.156819 0.0969651 0
-0.162215 0.0692033 0
-0.166084 0.0400226 0
-0.16846 0.00982197 0
-0.169373 -0.0209998 0
-0.168713 -0.0519674 0
-0.166366 -0.0826054 0
-0.162024 -0.112165 0
-0.155375 -0.139896 0
-0.146135 -0.16464 0
-0.13402 -0.185238 0
-0.11901 -0.199969 0
-0.101086 -0.20711 0
-0.0810485 -0.204725 0
-0.0596954 -0.190879 0
-0.0388946 -0.164144 0
-0.0205133 -0.12309 0
-0.00679918 -0.0682117 0
0 0 0
0 0 0
-0.00623186 0.0711331 0
-0.0184798 0.127061 0
-0.0346248 0.168208 0
-0.0525482 0.194998 0
-0.0707126 0.209179 0
-0.0875808 0.212503 0
-0.102719 0.206979 0
-0.115693 0.194617 0
-0.126538 0.17679 0
-0.135291 0.154873 0
-0.142229 0.129777 0
-0.147628 0.102418 0
-0.151723 0.0732789 0
-0.154745 0.0428469 0
-0.156779 0.0114455 0
-0.157908 -0.0206013 0
-0.157998 -0.0529196 0
-0.156915 -0.0851356 0
-0.154291 -0.116602 0
-0.149758 -0.146672 0
-0.142829 -0.174103 0
-0.133014 -0.197652 0
-0.120107 -0.215416 0
-0.103901 -0.225489 0
-0.0849025 -0.225279 0
-0.06362 -0.212194 0
-0.0421314 -0.184282 0
-0.0225152 -0.139593 0
-0.00754639 -0.0781549 0
0 0 0
0 0 0
-0.00664862 0.0804132 0
-0.0197754 0.141964 0
-0.0366812 0.185837 0
-0.0546668 0.213217 0
-0.0721018 0.226452 0
-0.0873557 0.22789 0
-0.100235 0.22001 0
-0.110547 0.205294 0
-0.118527 0.185263 0
-0.124413 0.161437 0
-0.128684 0.134764 0
-0.131822 0.106187 0
-0.134147 0.0761139 0
-0.135981 0.0449493 0
-0.137461 0.0129131 0
-0.138723 -0.0197752 0
-0.139628 -0.0528685 0
-0.140033 -0.0861201 0
-0.13953 -0.119017 0
-0.137706 -0.151045 0
-0.133868 -0.180963 0
-0.127319 -0.207526 0
-0.117568 -0.228644 0
-0.104123 -0.242224 0
-0.0871544 -0.244999 0
-0.0668298 -0.2337 0
-0.045259 -0.205545 0
-0.0245517 -0.157752 0
-0.00827606 -0.0895079 0
0 0 0
0 0 0
-0.00717317 0.090053 0
-0.0214411 0.157309 0
-0.0390573 0.203535 0
-0.0562751 0.230495 0
-0.0718365 0.241672 0
-0.0844835 0.240551 0
-0.0940975 0.229908 0
-0.10056 0.212519 0
-0.104517 0.190176 0
-0.106616 0.164667 0
-0.107473 0.136853 0
-0.107704 0.107589 0
-0.10774 0.0772005 0
-0.10801 0.0460097 0
-0.108696 0.0141031 0
-0.109974 -0.0184327 0
-0.111731 -0.0515075 0
-0.113849 -0.0850308 0
-0.11587 -0.118636 0
-0.117333 -0.151956 0
-0.117424 -0.183917 0
-0.115326 -0.213442 0
-0.110045 -0.238158 0
-0.100586 -0.255688 0
-0.0868912 -0.262269 0
-0.0689026 -0.254137 0
-0.048295 -0.227044 0
-0.0267427 -0.176746 0
-0.00904473 -0.101609 0
0 0 0
0 0 0
-0.00805705 0.100707 0
-0.0231442 0.173213 0
-0.0407436 0.220608 0
-0.0563371 0.245982 0
-0.0689389 0.254013 0
-0.0775633 0.249379 0
-0.0824207 0.235327 0
-0.0837215 0.215102 0
-0.0825381 0.190628 0
-0.079943 0.163825 0
-0.0766619 0.135417 0
-0.0734209 0.106129 0
-0.0707369 0.0761706 0
-0.069127 0.0457524 0
-0.068801 0.0148178 0
-0.069969 -0.0166897 0
-0.0725578 -0.0488457 0
-0.0764945 -0.0817259 0
-0.0813057 -0.115145 0
-0.0865184 -0.148918 0
-0.0912551 -0.182215 0
-0.0946381 -0.214208 0
-0.0951847 -0.242443 0
-0.0914118 -0.264469 0
-0.0827258 -0.275875 0
-0.0685332 -0.272249 0
-0.0501048 -0.247718 0
-0.0287113 -0.196405 0
-0.0100955 -0.114953 0
0 0 0
0 0 0
-0.00955176 0.113031 0
-0.024552 0.189791 0
-0.0407304 0.236364 0
-0.0538166 0.258832 0
-0.062431 0.262647 0
-0.065194 0.253262 0
-0.0633197 0.234917 0
-0.0580221 0.211851 0
-0.0506204 0.185718 0
-0.0424338 0.158171 0
-0.0343149 0.129828 0
-0.0271164 0.101311 0
-0.0213744 0.0726563 0
-0.0176251 0.043902 0
-0.0160961 0.014859 0
-0.0170149 -0.0146619 0
-0.0203582 -0.0448923 0
-0.0261025 -0.0760637 0
-0.0338349 -0.108229 0
-0.0431428 -0.141443 0
-0.0531187 -0.175107 0
-0.0628552 -0.208628 0
-0.0706306 -0.239984 0
-0.0747229 -0.267155 0
-0.0732717 -0.284602 0
-0.0644161 -0.286783 0
-0.0495533 -0.266502 0
-0.0300805 -0.216559 0
-0.0116714 -0.130032 0
0 0 0
0 0 0
-0.0104925 0.125708 0
-0.025263 0.205622 0
-0.039255 0.249397 0
-0.047412 0.266684 0
-0.049058 0.264428 0
-0.0435175 0.249576 0
-0.0330191 0.227005 0
-0.0197916 0.201594 0
-0.00528664 0.174567 0
0.00904447 0.147148 0
0.0223094 0.119801 0
0.0336159 0.0929885 0
0.0424802 0.0665643 0
0.0484188 0.0403833 0
0.0512124 0.0141442 0
0.0506416 -0.0124544 0
0.0466778 -0.0397719 0
0.0392923 -0.0681675 0
0.0287713 -0.0979305 0
0.0154013 -0.12935 0
9.63184e-06 -0.162106 0
-0.0165763 -0.195878 0
-0.0326084 -0.229303 0
-0.0463384 -0.261021 0
-0.0547089 -0.284894 0
-0.0546626 -0.294784 0
-0.0464241 -0.281388 0
-0.030218 -0.235404 0
-0.0125686 -0.145414 0
0 0 0
0 0 0
-0.00971442 0.137421 0
-0.024876 0.219285 0
-0.0365549 0.2583 0
-0.0358216 0.267176 0
-0.0255653 0.256209 0
-0.00867531 0.235695 0
0.0122569 0.209917 0
0.0346398 0.183158 0
0.0569403 0.156294 0
0.077625 0.130201 0
0.0959528 0.105051 0
0.111183 0.0810146 0
0.122959 0.0578011 0
0.130929 0.0351209 0
0.134918 0.0125908 0
0.134755 -0.0101722 0
0.13036 -0.033609 0
0.121655 -0.0581605 0
0.108742 -0.0842894 0
0.0917213 -0.112459 0
0.0711541 -0.142722 0
0.0475997 -0.175131 0
0.0226566 -0.208924 0
-0.00207674 -0.243341 0
-0.0232179 -0.273193 0
-0.0373844 -0.293294 0
-0.0405008 -0.290367 0
-0.0284918 -0.251137 0
-0.011583 -0.159661 0
0 0 0
0 0 0
-0.00901571 0.150837 0
-0.0197897 0.229485 0
-0.0226161 0.257128 0
-0.00778911 0.25495 0
0.0179943 0.235241 0
0.0480373 0.210286 0
0.0799431 0.183092 0
0.111315 0.156662 0
0.140776 0.131507 0
0.16695 0.108134 0
0.189401 0.0863907 0
0.207695 0.0661223 0
0.221665 0.0469503 0
0.231145 0.0284963 0
0.236038 0.0103428 0
0.236248 -0.00792778 0
0.231654 -0.0267816 0
0.222138 -0.0466849 0
0.207599 -0.0681842 0
0.187938 -0.0918259 0
0.163318 -0.118029 0
0.133902 -0.147212 0
0.100879 -0.179158 0
0.0654372 -0.213649 0
0.0304601 -0.247317 0
-0.00117046 -0.276794 0
-0.0209963 -0.286604 0
-0.0205593 -0.261273 0
-0.0101353 -0.174504 0
0 0 0
0 0 0
-0.0101945 0.168621 0
-0.00640301 0.234929 0
0.0125755 0.239935 0
0.0479418 0.224651 0
0.0915678 0.198778 0
0.135325 0.172018 0
0.177475 0.145969 0
0.216276 0.122227 0
0.250935 0.100815 0
0.280661 0.0817529 0
0.305441 0.0646324 0
0.325265 0.0490447 0
0.340199 0.0345956 0
0.350309 0.0208913 0
0.355592 0.00754408 0
0.356044 -0.00583353 0
0.351524 -0.0196673 0
0.341892 -0.0343831 0
0.326868 -0.0504925 0
0.306174 -0.0685071 0
0.279505 -0.0891009 0
0.246559 -0.112948 0
0.207772 -0.140318 0
0.163579 -0.171482 0
0.115584 -0.205083 0
0.0653899 -0.239762 0
0.0228763 -0.263263 0
-0.00207831 -0.263331 0
-0.00964631 -0.191673 0
0 0 0
0 0 0
0.0118941 0.164939 0
0.0465685 0.213327 0
0.0963213 0.198936 0
0.15345 0.175542 0
0.211826 0.148808 0
0.26532 0.1244 0
0.313328 0.10266 0
0.355248 0.0839309 0
0.391127 0.0678892 0
0.421012 0.0542104 0
0.44531 0.0423645 0
0.464424 0.0318211 0
0.478622 0.022246 0
0.488173 0.0133049 0
0.493157 0.00469105 0
0.493655 -0.00390262 0
0.489525 -0.0128098 0
0.480621 -0.0223643 0
0.466552 -0.0329564 0
0.446924 -0.0449762 0
0.421048 -0.0591732 0
0.388236 -0.0762972 0
0.348023 -0.0968793 0
0.299942 -0.121451 0
0.243934 -0.150275 0
0.17994 -0.183616 0
0.115114 -0.214338 0
0.0566107 -0.235305 0
0.0147873 -0.184524 0
0 0 0
2.77334e-30 0 0
0.0823951 0.113954 0
0.17041 0.142384 0
0.255923 0.126343 0
0.330816 0.106888 0
0.39544 0.0873189 0
0.450151 0.0709393 0
0.495979 0.0572746 0
0.533955 0.0458505 0
0.565057 0.0364011 0
0.59026 0.0286605 0
0.610248 0.0221749 0
0.625703 0.0164906 0
0.636994 0.0114103 0
0.644488 0.00673648 0
0.648312 0.00228004 0
0.648594 -0.00214819 0
0.645208 -0.00675268 0
0.638029 -0.0117379 0
0.626655 -0.0173178 0
0.610685 -0.0237064 0
0.589279 -0.0314818 0
0.561598 -0.0412224 0
0.526319 -0.0533198 0
0.482121 -0.0681663 0
0.427292 -0.0866785 0
0.360121 -0.109773 0
0.279712 -0.133822 0
0.185167 -0.155194 0
0.0880689 -0.126413 0
2.77334e-30 0 0
0.25 0 0
0.35915 0.0481473 0
0.457445 0.0589811 0
0.540707 0.0505625 0
0.604759 0.0409525 0
0.654226 0.031865 0
0.693738 0.025014 0
0.725009 0.0197446 0
0.749754 0.0154018 0
0.769193 0.0119162 0
0.784543 0.00921851 0
0.796422 0.00705597 0
0.805448 0.00517603 0
0.811919 0.00351834 0
0.816136 0.00202259 0
0.818209 0.000615033 0
0.818246 -0.000778057 0
0.816169 -0.00223603 0
0.811895 -0.00383825 0
0.805148 -0.0056434 0
0.795647 -0.00771018 0
0.782747 -0.0103247 0
0.7658 -0.0137732 0
0.743398 -0.0181799 0
0.714134 -0.0236691 0
0.6759 -0.0310132 0
0.62659 -0.0409845 0
0.560174 -0.0522105 0
0.47062 -0.063319 0
0.364904 -0.053014 0
0.25 0 0
1 0 0
1 0 0
1 0 0
1 0 0
1 0 0
1 0 0
1 0 0
1 0 0
1 0 0
1 0 0
1 0 0
1 0 0
1 0 0
1 0 0
1 0 0
1 0 0
1 0 0
1 0 0
1 0 0
1 0 0
1 0 0
1 0 0
1 0 0
1 0 0
1 0 0
1 0 0
1 0 0
1 0 0
1 0 0
1 0 0
1 0 0
      </DataArray> 
      <DataArray type="Float64" NumberOfComponents="3" Name="Real Velocity" format="ascii">
0 0 0
0 0 0
0 0 0
0 0 0
0 0 0
0 0 0
0 0 0
0 0 0
0 0 0
0 0 0
0 0 0