<?xml version="1.0"?>
<VTKFile type="UnstructuredGrid">
  <UnstructuredGrid>
  <Piece NumberOfPoints="961"  NumberOfCells="225">
    <Points>
      <DataArray type="Float64" NumberOfComponents="3" format="ascii">
0 0 0
0.0333333 0 0
0.0666667 0 0
0.1 0 0
0.133333 0 0
0.166667 0 0
0.2 0 0
0.233333 0 0
0.266667 0 0
0.3 0 0
0.333333 0 0
0.366667 0 0
0.4 0 0
0.433333 0 0
0.466667 0 0
0.5 0 0
0.533333 0 0
0.566667 0 0
0.6 0 0
0.633333 0 0
0.666667 0 0
0.7 0 0
0.733333 0 0
0.766667 0 0
0.8 0 0
0.833333 0 0
0.866667 0 0
0.9 0 0
0.933333 0 0
0.966667 0 0
1 0 0
0 0.0333333 0
0.0333333 0.0333333 0
0.0666667 0.0333333 0
0.1 0.0333333 0
0.133333 0.0333333 0
0.166667 0.0333333 0
0.2 0.0333333 0
0.233333 0.0333333 0
0.266667 0.0333333 0
0.3 0.0333333 0
0.333333 0.0333333 0
0.366667 0.0333333 0
0.4 0.0333333 0
0.433333 0.0333333 0
0.466667 0.0333333 0
0.5 0.0333333 0
0.533333 0.0333333 0
0.566667 0.0333333 0
0.6 0.0333333 0
0.633333 0.0333333 0
0.666667 0.0333333 0
0.7 0.0333333 0
0.733333 0.0333333 0
0.766667 0.0333333 0
0.8 0.0333333 0
0.833333 0.0333333 0
0.866667 0.0333333 0
0.9 0.0333333 0
0.933333 0.0333333 0
0.966667 0.0333333 0
1 0.0333333 0
0 0.0666667 0
0.0333333 0.0666667 0
0.0666667 0.0666667 0
0.1 0.0666667 0
0.133333 0.0666667 0
0.166667 0.0666667 0
0.2 0.0666667 0
0.233333 0.0666667 0
0.266667 0.0666667 0
0.3 0.0666667 0
0.333333 0.0666667 0
0.366667 0.0666667 0
0.4 0.0666667 0
0.433333 0.0666667 0
0.466667 0.0666667 0
0.5 0.0666667 0
0.533333 0.0666667 0
0.566667 0.0666667 0
0.6 0.0666667 0
0.633333 0.0666667 0
0.666667 0.0666667 0
0.7 0.0666667 0
0.733333 0.0666667 0
0.766667 0.0666667 0
0.8 0.0666667 0
0.833333 0.0666667 0
0.866667 0.0666667 0
0.9 0.0666667 0
0.933333 0.0666667 0
0.966667 0.0666667 0
1 0.0666667 0
0 0.1 0
0.0333333 0.1 0
0.0666667 0.1 0
0.1 0.1 0
0.133333 0.1 0
0.166667 0.1 0
0.2 0.1 0
0.233333 0.1 0
0.266667 0.1 0
0.3 0.1 0
0.333333 0.1 0
0.366667 0.1 0
0.4 0.1 0
0.433333 0.1 0
0.466667 0.1 0
0.5 0.1 0
0.533333 0.1 0
0.566667 0.1 0
0.6 0.1 0
0.633333 0.1 0
0.666667 0.1 0
0.7 0.1 0
0.733333 0.1 0
0.766667 0.1 0
0.8 0.1 0
0.833333 0.1 0
0.866667 0.1 0
0.9 0.1 0
0.933333 0.1 0
0.966667 0.1 0
1 0.1 0
0 0.133333 0
0.0333333 0.133333 0
0.0666667 0.133333 0
0.1 0.133333 0
0.133333 0.133333 0
0.166667 0.133333 0
0.2 0.133333 0
0.233333 0.133333 0
0.266667 0.133333 0
0.3 0.133333 0
0.333333 0.133333 0
0.366667 0.133333 0
0.4 0.133333 0
0.433333 0.133333 0
0.466667 0.133333 0
0.5 0.133333 0
0.533333 0.133333 0
0.566667 0.133333 0
0.6 0.133333 0
0.633333 0.133333 0
0.666667 0.133333 0
0.7 0.133333 0
0.733333 0.133333 0
0.766667 0.133333 0
0.8 0.133333 0
0.833333 0.133333 0
0.866667 0.133333 0
0.9 0.133333 0
0.933333 0.133333 0
0.966667 0.133333 0
1 0.133333 0
0 0.166667 0
0.0333333 0.166667 0
0.0666667 0.166667 0
0.1 0.166667 0
0.133333 0.166667 0
0.166667 0.166667 0
0.2 0.166667 0
0.233333 0.166667 0
0.266667 0.166667 0
0.3 0.166667 0
0.333333 0.166667 0
0.366667 0.166667 0
0.4 0.166667 0
0.433333 0.166667 0
0.466667 0.166667 0
0.5 0.166667 0
0.533333 0.166667 0
0.566667 0.166667 0
0.6 0.166667 0
0.633333 0.166667 0
0.666667 0.166667 0
0.7 0.166667 0
0.733333 0.166667 0
0.766667 0.166667 0
0.8 0.166667 0
0.833333 0.166667 0
0.866667 0.166667 0
0.9 0.166667 0
0.933333 0.166667 0
0.966667 0.166667 0
1 0.166667 0
0 0.2 0
0.0333333 0.2 0
0.0666667 0.2 0
0.1 0.2 0
0.133333 0.2 0
0.166667 0.2 0
0.2 0.2 0
0.233333 0.2 0
0.266667 0.2 0
0.3 0.2 0
0.333333 0.2 0
0.366667 0.2 0
0.4 0.2 0
0.433333 0.2 0
0.466667 0.2 0
0.5 0.2 0
0.533333 0.2 0
0.566667 0.2 0
0.6 0.2 0
0.633333 0.2 0
0.666667 0.2 0
0.7 0.2 0
0.733333 0.2 0
0.766667 0.2 0
0.8 0.2 0
0.833333 0.2 0
0.866667 0.2 0
0.9 0.2 0
0.933333 0.2 0
0.966667 0.2 0
1 0.2 0
0 0.233333 0
0.0333333 0.233333 0
0.0666667 0.233333 0
0.1 0.233333 0
0.133333 0.233333 0
0.166667 0.233333 0
0.2 0.233333 0
0.233333 0.233333 0
0.266667 0.233333 0
0.3 0.233333 0
0.333333 0.233333 0
0.366667 0.233333 0
0.4 0.233333 0
0.433333 0.233333 0
0.466667 0.233333 0
0.5 0.233333 0
0.533333 0.233333 0
0.566667 0.233333 0
0.6 0.233333 0
0.633333 0.233333 0
0.666667 0.233333 0
0.7 0.233333 0
0.733333 0.233333 0
0.766667 0.233333 0
0.8 0.233333 0
0.833333 0.233333 0
0.866667 0.233333 0
0.9 0.233333 0
0.933333 0.233333 0
0.966667 0.233333 0
1 0.233333 0
0 0.266667 0
0.0333333 0.266667 0
0.0666667 0.266667 0
0.1 0.266667 0
0.133333 0.266667 0
0.166667 0.266667 0
0.2 0.266667 0
0.233333 0.266667 0
0.266667 0.266667 0
0.3 0.266667 0
0.333333 0.266667 0
0.366667 0.266667 0
0.4 0.266667 0
0.433333 0.266667 0
0.466667 0.266667 0
0.5 0.266667 0
0.533333 0.266667 0
0.566667 0.266667 0
0.6 0.266667 0
0.633333 0.266667 0
0.666667 0.266667 0
0.7 0.266667 0
0.733333 0.266667 0
0.766667 0.266667 0
0.8 0.266667 0
0.833333 0.266667 0
0.866667 0.266667 0
0.9 0.266667 0
0.933333 0.266667 0
0.966667 0.266667 0
1 0.266667 0
0 0.3 0
0.0333333 0.3 0
0.0666667 0.3 0
0.1 0.3 0
0.133333 0.3 0
0.166667 0.3 0
0.2 0.3 0
0.233333 0.3 0
0.266667 0.3 0
0.3 0.3 0
0.333333 0.3 0
0.366667 0.3 0
0.4 0.3 0
0.433333 0.3 0
0.466667 0.3 0
0.5 0.3 0
0.533333 0.3 0
0.566667 0.3 0
0.6 0.3 0
0.633333 0.3 0
0.666667 0.3 0
0.7 0.3 0
0.733333 0.3 0
0.766667 0.3 0
0.8 0.3 0
0.833333 0.3 0
0.866667 0.3 0
0.9 0.3 0
0.933333 0.3 0
0.966667 0.3 0
1 0.3 0
0 0.333333 0
0.0333333 0.333333 0
0.0666667 0.333333 0
0.1 0.333333 0
0.133333 0.333333 0
0.166667 0.333333 0
0.2 0.333333 0
0.233333 0.333333 0
0.266667 0.333333 0
0.3 0.333333 0
0.333333 0.333333 0
0.366667 0.333333 0
0.4 0.333333 0
0.433333 0.333333 0
0.466667 0.333333 0
0.5 0.333333 0
0.533333 0.333333 0
0.566667 0.333333 0
0.6 0.333333 0
0.633333 0.333333 0
0.666667 0.333333 0
0.7 0.333333 0
0.733333 0.333333 0
0.766667 0.333333 0
0.8 0.333333 0
0.833333 0.333333 0
0.866667 0.333333 0
0.9 0.333333 0
0.933333 0.333333 0
0.966667 0.333333 0
1 0.333333 0
0 0.366667 0
0.0333333 0.366667 0
0.0666667 0.366667 0
0.1 0.366667 0
0.133333 0.366667 0
0.166667 0.366667 0
0.2 0.366667 0
0.233333 0.366667 0
0.266667 0.366667 0
0.3 0.366667 0
0.333333 0.366667 0
0.366667 0.366667 0
0.4 0.366667 0
0.433333 0.366667 0
0.466667 0.366667 0
0.5 0.366667 0
0.533333 0.366667 0
0.566667 0.366667 0
0.6 0.366667 0
0.633333 0.366667 0
0.666667 0.366667 0
0.7 0.366667 0
0.733333 0.366667 0
0.766667 0.366667 0
0.8 0.366667 0
0.833333 0.366667 0
0.866667 0.366667 0
0.9 0.366667 0
0.933333 0.366667 0
0.966667 0.366667 0
1 0.366667 0
0 0.4 0
0.0333333 0.4 0
0.0666667 0.4 0
0.1 0.4 0
0.133333 0.4 0
0.166667 0.4 0
0.2 0.4 0
0.233333 0.4 0
0.266667 0.4 0
0.3 0.4 0
0.333333 0.4 0
0.366667 0.4 0
0.4 0.4 0
0.433333 0.4 0
0.466667 0.4 0
0.5 0.4 0
0.533333 0.4 0
0.566667 0.4 0
0.6 0.4 0
0.633333 0.4 0
0.666667 0.4 0
0.7 0.4 0
0.733333 0.4 0
0.766667 0.4 0
0.8 0.4 0
0.833333 0.4 0
0.866667 0.4 0
0.9 0.4 0
0.933333 0.4 0
0.966667 0.4 0
1 0.4 0
0 0.433333 0
0.0333333 0.433333 0
0.0666667 0.433333 0
0.1 0.433333 0
0.133333 0.433333 0
0.166667 0.433333 0
0.2 0.433333 0
0.233333 0.433333 0
0.266667 0.433333 0
0.3 0.433333 0
0.333333 0.433333 0
0.366667 0.433333 0
0.4 0.433333 0
0.433333 0.433333 0
0.466667 0.433333 0
0.5 0.433333 0
0.533333 0.433333 0
0.566667 0.433333 0
0.6 0.433333 0
0.633333 0.433333 0
0.666667 0.433333 0
0.7 0.433333 0
0.733333 0.433333 0
0.766667 0.433333 0
0.8 0.433333 0
0.833333 0.433333 0
0.866667 0.433333 0
0.9 0.433333 0
0.933333 0.433333 0
0.966667 0.433333 0
1 0.433333 0
0 0.466667 0
0.0333333 0.466667 0
0.0666667 0.466667 0
0.1 0.466667 0
0.133333 0.466667 0
0.166667 0.466667 0
0.2 0.466667 0
0.233333 0.466667 0
0.266667 0.466667 0
0.3 0.466667 0
0.333333 0.466667 0
0.366667 0.466667 0
0.4 0.466667 0
0.433333 0.466667 0
0.466667 0.466667 0
0.5 0.466667 0
0.533333 0.466667 0
0.566667 0.466667 0
0.6 0.466667 0
0.633333 0.466667 0
0.666667 0.466667 0
0.7 0.466667 0
0.733333 0.466667 0
0.766667 0.466667 0
0.8 0.466667 0
0.833333 0.466667 0
0.866667 0.466667 0
0.9 0.466667 0
0.933333 0.466667 0
0.966667 0.466667 0
1 0.466667 0
0 0.5 0
0.0333333 0.5 0
0.0666667 0.5 0
0.1 0.5 0
0.133333 0.5 0
0.166667 0.5 0
0.2 0.5 0
0.233333 0.5 0
0.266667 0.5 0
0.3 0.5 0
0.333333 0.5 0
0.366667 0.5 0
0.4 0.5 0
0.433333 0.5 0
0.466667 0.5 0
0.5 0.5 0
0.533333 0.5 0
0.566667 0.5 0
0.6 0.5 0
0.633333 0.5 0
0.666667 0.5 0
0.7 0.5 0
0.733333 0.5 0
0.766667 0.5 0
0.8 0.5 0
0.833333 0.5 0
0.866667 0.5 0
0.9 0.5 0
0.933333 0.5 0
0.966667 0.5 0
1 0.5 0
0 0.533333 0
0.0333333 0.533333 0
0.0666667 0.533333 0
0.1 0.533333 0
0.133333 0.533333 0
0.166667 0.533333 0
0.2 0.533333 0
0.233333 0.533333 0
0.266667 0.533333 0
0.3 0.533333 0
0.333333 0.533333 0
0.366667 0.533333 0
0.4 0.533333 0
0.433333 0.533333 0
0.466667 0.533333 0
0.5 0.533333 0
0.533333 0.533333 0
0.566667 0.533333 0
0.6 0.533333 0
0.633333 0.533333 0
0.666667 0.533333 0
0.7 0.533333 0
0.733333 0.533333 0
0.766667 0.533333 0
0.8 0.533333 0
0.833333 0.533333 0
0.866667 0.533333 0
0.9 0.533333 0
0.933333 0.533333 0
0.966667 0.533333 0
1 0.533333 0
0 0.566667 0
0.0333333 0.566667 0
0.0666667 0.566667 0
0.1 0.566667 0
0.133333 0.566667 0
0.166667 0.566667 0
0.2 0.566667 0
0.233333 0.566667 0
0.266667 0.566667 0
0.3 0.566667 0
0.333333 0.566667 0
0.366667 0.566667 0
0.4 0.566667 0
0.433333 0.566667 0
0.466667 0.566667 0
0.5 0.566667 0
0.533333 0.566667 0
0.566667 0.566667 0
0.6 0.566667 0
0.633333 0.566667 0
0.666667 0.566667 0
0.7 0.566667 0
0.733333 0.566667 0
0.766667 0.566667 0
0.8 0.566667 0
0.833333 0.566667 0
0.866667 0.566667 0
0.9 0.566667 0
0.933333 0.566667 0
0.966667 0.566667 0
1 0.566667 0
0 0.6 0
0.0333333 0.6 0
0.0666667 0.6 0
0.1 0.6 0
0.133333 0.6 0
0.166667 0.6 0
0.2 0.6 0
0.233333 0.6 0
0.266667 0.6 0
0.3 0.6 0
0.333333 0.6 0
0.366667 0.6 0
0.4 0.6 0
0.433333 0.6 0
0.466667 0.6 0
0.5 0.6 0
0.533333 0.6 0
0.566667 0.6 0
0.6 0.6 0
0.633333 0.6 0
0.666667 0.6 0
0.7 0.6 0
0.733333 0.6 0
0.766667 0.6 0
0.8 0.6 0
0.833333 0.6 0
0.866667 0.6 0
0.9 0.6 0
0.933333 0.6 0
0.966667 0.6 0
1 0.6 0
0 0.633333 0
0.0333333 0.633333 0
0.0666667 0.633333 0
0.1 0.633333 0
0.133333 0.633333 0
0.166667 0.633333 0
0.2 0.633333 0
0.233333 0.633333 0
0.266667 0.633333 0
[...]
    <PointData>
      <DataArray type="Float64" NumberOfComponents="3" Name="Velocity" format="ascii">
0 0 0
0 0 0
0 0 0
0 0 0
0 0 0
0 0 0
0 0 0
0 0 0
0 0 0
0 0 0
0 0 0
0 0 0
0 0 0
0 0 0
0 0 0
0 0 0
0 0 0
0 0 0
0 0 0
0 0 0
0 0 0
0 0 0
0 0 0
0 0 0
0 0 0
0 0 0
0 0 0
0 0 0
0 0 0
0 0 0
0 0 0
0 0 0
-0.000492984 0.000446222 0
-0.00150032 0.00100097 0
-0.00316882 0.00154554 0
-0.00564531 0.00196124 0
-0.00858505 0.0022073 0
-0.0116433 0.00224298 0
-0.0146948 0.00214534 0
-0.0176143 0.00199143 0
-0.020293 0.00178114 0
-0.0226223 0.00151436 0
-0.0245636 0.00121251 0
-0.0260783 0.000896981 0
-0.0271399 0.000568524 0
-0.027722 0.000227879 0
-0.0278172 -0.000118193 0
-0.0274182 -0.000462931 0
-0.0265409 -0.000794873 0
-0.0252016 -0.00110256 0
-0.0234421 -0.00138628 0
-0.0213044 -0.00164633 0
-0.0188417 -0.00185659 0
-0.016107 -0.00199092 0
-0.0132225 -0.00206274 0
-0.0103103 -0.00208546 0
-0.00746656 -0.00199279 0
-0.00478749 -0.00171842 0
-0.00257804 -0.00130522 0
-0.00114315 -0.000796043 0
-0.00033355 -0.00031845 0
0 0 0
0 0 0
-0.000751907 0.00115762 0
-0.00317062 0.00285803 0
-0.00694356 0.0045451 0
-0.0117581 0.00566267 0
-0.0171919 0.00627505 0
-0.0228223 0.00644654 0
-0.028394 0.00627487 0
-0.0336517 0.0058578 0
-0.0384492 0.00524804 0
-0.0426408 0.00449832 0
-0.0461485 0.0036448 0
-0.0488948 0.00272362 0
-0.050825 0.00174736 0
-0.0518845 0.000728557 0
-0.0520586 -0.000308217 0
-0.0513323 -0.00133841 0
-0.0497315 -0.00233371 0
-0.0472819 -0.00326581 0
-0.0440652 -0.00411429 0
-0.0401634 -0.0048587 0
-0.0356904 -0.00546638 0
-0.0307602 -0.00590467 0
-0.0255363 -0.00613336 0
-0.0201821 -0.00611223 0
-0.0149504 -0.00578598 0
-0.0100942 -0.00509928 0
-0.00591077 -0.00399643 0
-0.0026972 -0.0024217 0
-0.000658585 -0.000910942 0
0 0 0
0 0 0
-0.00134085 0.0030547 0
-0.00525806 0.00657847 0
-0.0110091 0.00976146 0
-0.0178516 0.0117938 0
-0.0253568 0.0128532 0
-0.0330964 0.0131174 0
-0.040722 0.012739 0
-0.0478853 0.0118709 0
-0.0544211 0.0106282 0
-0.0601642 0.00912617 0
-0.064992 0.00741609 0
-0.0687817 0.00554936 0
-0.0714543 0.0035613 0
-0.0729307 0.00148726 0
-0.0731876 -0.000623573 0
-0.072202 -0.00272199 0
-0.0700101 -0.00475167 0
-0.0666481 -0.00665629 0
-0.0622292 -0.00838148 0
-0.0568665 -0.0098729 0
-0.0507355 -0.0110879 0
-0.0440115 -0.011984 0
-0.0368785 -0.012469 0
-0.0295203 -0.012451 0
-0.022291 -0.0118541 0
-0.0155444 -0.0106026 0
-0.00955586 -0.0085704 0
-0.00460087 -0.00563128 0
-0.00123153 -0.00252718 0
0 0 0
0 0 0
-0.0028239 0.00705799 0
-0.0080098 0.0131696 0
-0.0150504 0.0179574 0
-0.0234386 0.0210442 0
-0.0326162 0.0225918 0
-0.042025 0.0227622 0
-0.0513031 0.0218882 0
-0.0600884 0.0203026 0
-0.0681612 0.0181493 0
-0.0753016 0.0155722 0
-0.0813311 0.0126456 0
-0.0860712 0.00944361 0
-0.0894269 0.00603517 0
-0.0913036 0.00248921 0
-0.091668 -0.00111776 0
-0.090487 -0.00470926 0
-0.0878153 -0.00818396 0
-0.0837076 -0.0114405 0
-0.0782938 -0.0143853 0
-0.0717035 -0.0169247 0
-0.0641666 -0.0189798 0
-0.0559129 -0.0204716 0
-0.0471862 -0.0213269 0
-0.0382301 -0.0214724 0
-0.0293276 -0.0206717 0
-0.0207619 -0.0186885 0
-0.013071 -0.0155239 0
-0.00679288 -0.0111791 0
-0.00230882 -0.00591687 0
0 0 0
0 0 0
-0.00396469 0.0115679 0
-0.0104734 0.020514 0
-0.0189639 0.0269804 0
-0.0288739 0.031109 0
-0.0395657 0.03312 0
-0.0504015 0.0332334 0
-0.061059 0.0319192 0
-0.0712156 0.0296476 0
-0.0805936 0.0265741 0
-0.0889149 0.0228544 0
-0.0959686 0.0186022 0
-0.101544 0.0139316 0
-0.105522 0.00894319 0
-0.107785 0.00373794 0
-0.108281 -0.00156729 0
-0.106959 -0.00685557 0
-0.103883 -0.0119718 0
-0.0991193 -0.0167608 0
-0.0928234 -0.0210847 0
-0.0851501 -0.0248059 0
-0.0763703 -0.0277944 0
-0.066755 -0.0299204 0
-0.0566238 -0.0311477 0
-0.0462967 -0.03144 0
-0.0359805 -0.0304475 0
-0.025882 -0.0278207 0
-0.016655 -0.0235411 0
-0.00895321 -0.0175905 0
-0.00324531 -0.00979991 0
0 0 0
0 0 0
-0.00352687 0.014985 0
-0.0116964 0.0264946 0
-0.0226458 0.0346778 0
-0.034512 0.0396835 0
-0.0468011 0.0420669 0
-0.0590192 0.0423831 0
-0.0709111 0.0410289 0
-0.0822214 0.0384008 0
-0.0926424 0.0346657 0
-0.101866 0.0299905 0
-0.109707 0.0245548 0
-0.11598 0.0185384 0
-0.120519 0.0120596 0
-0.123157 0.00523697 0
-0.123809 -0.00174865 0
-0.122388 -0.00871628 0
-0.118948 -0.0154564 0
-0.113542 -0.0217593 0
-0.106382 -0.0274387 0
-0.0976823 -0.032308 0
-0.0877336 -0.0361839 0
-0.0768281 -0.0388832 0
-0.0653555 -0.0403723 0
-0.0537056 -0.0406174 0
-0.0421698 -0.0393904 0
-0.0310399 -0.0364629 0
-0.0205069 -0.0313061 0
-0.0107618 -0.0233911 0
-0.00339584 -0.0128962 0
0 0 0
0 0 0
-0.00318211 0.0210561 0
-0.0124653 0.0361581 0
-0.025108 0.0461947 0
-0.0383687 0.0520547 0
-0.0519687 0.0546661 0
-0.0656293 0.054957 0
-0.0789831 0.0532558 0
-0.0916631 0.0498908 0
-0.103351 0.0450948 0
-0.113729 0.0391007 0
-0.122602 0.0321196 0
-0.129774 0.0243626 0
-0.135034 0.0159681 0
-0.13817 0.0070743 0
-0.139068 -0.00207377 0
-0.137614 -0.0112313 0
-0.13385 -0.020104 0
-0.127816 -0.028398 0
-0.11976 -0.0358622 0
-0.10993 -0.0422458 0
-0.0986551 -0.0473182 0
-0.0862633 -0.0508488 0
-0.0732063 -0.0527463 0
-0.0599355 -0.0529194 0
-0.0469728 -0.0513253 0
-0.03484 -0.0479212 0
-0.0232726 -0.041866 0
-0.0120062 -0.0323185 0
-0.00344663 -0.0185921 0
0 0 0
0 0 0
-0.00460209 0.0335285 0
-0.0135662 0.0545514 0
-0.0253622 0.0666759 0
-0.0384597 0.0735095 0
-0.0527146 0.0761513 0
-0.0679827 0.0757006 0
-0.083399 0.0726384 0
-0.0980981 0.0674459 0
-0.111763 0.0605319 0
-0.124078 0.0523051 0
-0.134709 0.042913 0
-0.14332 0.0325029 0
-0.149684 0.0212521 0
-0.153573 0.00933793 0
-0.154875 -0.00295458 0
-0.153475 -0.0153404 0
-0.149426 -0.0273811 0
-0.14278 -0.0386385 0
-0.133744 -0.0487703 0
-0.122523 -0.0574341 0
-0.109534 -0.064367 0
-0.0951919 -0.069306 0
-0.0800013 -0.0720157 0
-0.0644656 -0.0722608 0
-0.0494668 -0.0700774 0
-0.0358868 -0.0655015 0
-0.0235982 -0.0582678 0
-0.0124736 -0.0481108 0
-0.00408388 -0.0302738 0
0 0 0
0 0 0
-0.00532488 0.0430716 0
-0.0132469 0.0689866 0
-0.0236908 0.0833301 0
-0.0365813 0.0916871 0
-0.0514997 0.0950448 0
-0.0680271 0.0943907 0
-0.0850085 0.0904407 0
-0.101289 0.0839106 0
-0.116529 0.0753225 0
-0.130392 0.0651984 0
-0.14243 0.0536479 0
-0.152194 0.0407804 0
-0.159459 0.0268374 0
-0.163998 0.0120606 0
-0.165704 -0.00321977 0
-0.16447 -0.0186731 0
-0.160344 -0.0337443 0
-0.153376 -0.0478781 0
-0.143722 -0.0606257 0
-0.131535 -0.0715378 0
-0.117284 -0.0802948 0
-0.101437 -0.0865767 0
-0.0845484 -0.0900124 0
-0.0671701 -0.0902308 0
-0.0504085 -0.0872299 0
-0.0353693 -0.0810079 0
-0.02243 -0.0720595 0
-0.0119679 -0.0608795 0
-0.00436413 -0.0395117 0
0 0 0
0 0 0
-0.00288852 0.0403548 0
-0.00975498 0.0667761 0
-0.0203765 0.083366 0
-0.0345302 0.0942264 0
-0.050785 0.0998688 0
-0.0677098 0.100805 0
-0.0846615 0.097927 0
-0.100997 0.0921293 0
-0.116299 0.0838119 0
-0.130149 0.0733751 0
-0.142168 0.0610371 0
-0.151974 0.0470161 0
-0.159349 0.0316496 0
-0.164075 0.0152748 0
-0.166031 -0.00169805 0
-0.165099 -0.018859 0
-0.161272 -0.0356503 0
-0.154544 -0.0515142 0
-0.145078 -0.0658912 0
-0.133037 -0.0782219 0
-0.11882 -0.0880659 0
-0.102823 -0.0949829 0
-0.0856556 -0.0985686 0
-0.0679236 -0.0984187 0
-0.0505547 -0.0943663 0
-0.0344767 -0.0862444 0
-0.0207144 -0.0747889 0
-0.0102928 -0.060736 0
-0.00334393 -0.0378762 0
0 0 0
0 0 0
-0.00107829 0.0339508 0
-0.00762143 0.0595699 0
-0.0188574 0.0783877 0
-0.0340144 0.0919351 0
-0.0509716 0.100254 0
-0.0676084 0.103386 0
-0.0838285 0.102262 0
-0.0995355 0.0978146 0
-0.114231 0.0903081 0
-0.127416 0.0800079 0
-0.138823 0.0672993 0
-0.148184 0.0525675 0
-0.155294 0.0362403 0
-0.159949 0.0187455 0
-0.162027 0.000573096 0
-0.161402 -0.0177868 0
-0.158028 -0.035812 0
-0.15186 -0.0529801 0
-0.143055 -0.0686547 0
-0.131772 -0.0821995 0
-0.118296 -0.0930197 0
-0.102914 -0.10052 0
-0.0862475 -0.10427 0
-0.0689184 -0.103836 0
-0.0515956 -0.0988654 0
-0.0349487 -0.0890039 0
-0.0204688 -0.0748681 0
-0.00964746 -0.0570746 0
-0.00273951 -0.0329947 0
0 0 0
0 0 0
-0.00367945 0.0324321 0
-0.0113773 0.0590178 0
-0.022572 0.0799998 0
-0.0367421 0.0956209 0
-0.0524606 0.105831 0
-0.0683007 0.110578 0
-0.0839797 0.110612 0
-0.0992146 0.106679 0
-0.113482 0.0991192 0
-0.126259 0.0882696 0
-0.137297 0.0746529 0
-0.146347 0.0587916 0
-0.153229 0.0411611 0
-0.157766 0.0222371 0
-0.15986 0.00255617 0
-0.159415 -0.0173452 0
-0.156429 -0.036942 0
-0.150899 -0.0557092 0
-0.142893 -0.0730041 0
-0.132478 -0.0881841 0
-0.119867 -0.100496 0
-0.105273 -0.109185 0
-0.0892488 -0.113702 0
-0.0723471 -0.113494 0
-0.0552214 -0.108106 0
-0.0385249 -0.0970794 0
-0.0237105 -0.0807093 0
-0.0122309 -0.0592895 0
-0.00426713 -0.0324947 0
0 0 0
0 0 0
-0.00684435 0.0351797 0
-0.0160196 0.064641 0
-0.0273119 0.0882072 0
-0.0405074 0.105702 0
-0.055086 0.117226 0
-0.0705276 0.12288 0
-0.0861584 0.123266 0
-0.101305 0.118984 0
-0.115453 0.110549 0
-0.12809 0.098477 0
-0.138978 0.0833904 0
-0.147875 0.0659126 0
-0.154636 0.0465458 0
-0.159115 0.0257922 0
-0.16125 0.00419871 0
-0.160979 -0.0176877 0
-0.158344 -0.0393171 0
-0.153391 -0.0601397 0
-0.14608 -0.0795099 0
-0.136373 -0.0967816 0
-0.12441 -0.111071 0
-0.11033 -0.121492 0
-0.0945999 -0.127319 0
-0.0776879 -0.127824 0
-0.0603393 -0.122422 0
-0.0432998 -0.110529 0
-0.0278728 -0.0920951 0
-0.0153613 -0.0670711 0
-0.00599408 -0.0361438 0
0 0 0
0 0 0
-0.00672536 0.0415744 0
-0.0165454 0.0759605 0
-0.0288689 0.103015 0
-0.0431046 0.122596 0
-0.0586818 0.135067 0
-0.07503 0.14079 0
-0.0914081 0.140515 0
-0.107075 0.134989 0
-0.121543 0.124903 0
-0.134322 0.110947 0
-0.145255 0.093804 0
-0.154181 0.0741545 0
-0.160994 0.0525278 0
-0.165587 0.0294529 0
-0.167915 0.00544828 0
-0.167932 -0.0189675 0
-0.165646 -0.0432137 0
-0.161067 -0.0667098 0
-0.154105 -0.0887425 0
-0.144673 -0.108598 0
-0.132799 -0.125322 0
-0.118512 -0.137956 0
-0.102242 -0.145577 0
-0.084419 -0.147257 0
-0.0658567 -0.14215 0
-0.0473679 -0.129411 0
-0.030389 -0.108808 0
-0.0163564 -0.08011 0
-0.00598765 -0.0437097 0
0 0 0
0 0 0
-0.00551867 0.0492353 0
-0.0156945 0.0893058 0
-0.029338 0.120196 0
-0.04526 0.141891 0
-0.0624785 0.155086 0
-0.0800118 0.160477 0
-0.0971756 0.159082 0
-0.113286 0.15192 0
-0.127927 0.139868 0
-0.140685 0.123798 0
-0.151497 0.104434 0
-0.160301 0.0824955 0
-0.167051 0.0585325 0
-0.171699 0.0330944 0
-0.174213 0.0066559 0
-0.174559 -0.0203085 0
-0.172686 -0.04721 0
-0.168538 -0.0734597 0
-0.161985 -0.098275 0
-0.152894 -0.120874 0
-0.141179 -0.140249 0
-0.126757 -0.155394 0
-0.109992 -0.165148 0
-0.0912471 -0.16835 0
-0.0713822 -0.163824 0
-0.0512554 -0.150397 0
-0.032522 -0.127624 0
-0.0168377 -0.0950583 0
-0.0055484 -0.0525631 0
0 0 0
0 0 0
-0.00542045 0.0557815 0
-0.0162065 0.101007 0
-0.0308143 0.135522 0
-0.0477001 0.159175 0
-0.0657067 0.173019 0
-0.0836768 0.178108 0
-0.100907 0.175687 0
-0.116695 0.167003 0
-0.130782 0.153132 0
-0.142909 0.135148 0
-0.153074 0.11382 0
-0.161275 0.0899136 0
-0.167558 0.0639852 0
-0.171969 0.0365921 0
-0.1745 0.00817258 0
-0.175145 -0.0208347 0
-0.173813 -0.049884 0
-0.170416 -0.0784294 0
-0.164734 -0.105681 0
-0.156551 -0.130847 0
-0.145697 -0.152854 0
-0.132005 -0.170624 0
-0.115668 -0.18271 0
-0.0968793 -0.187661 0
-0.0765243 -0.183976 0
-0.0554885 -0.170157 0
-0.0355349 -0.145317 0
-0.0184265 -0.108568 0
-0.00597692 -0.0600748 0
0 0 0
0 0 0
-0.00585484 0.0625533 0
-0.0173832 0.112845 0
-0.0327802 0.150732 0
-0.0502409 0.17607 0
-0.0684833 0.190276 0
-0.0862255 0.194763 0
-0.102802 0.19107 0
-0.117549 0.180737 0
-0.130379 0.165017 0
-0.141207 0.145167 0
-0.150119 0.122011 0
-0.157206 0.0963756 0
-0.162613 0.0687988 0
-0.166487 0.0398182 0
-0.16886 0.00982571 0
-0.169764 -0.0207866 0
-0.169086 -0.0515523 0
-0.166712 -0.0820047 0
-0.162335 -0.111402 0
-0.155647 -0.139004 0
-0.146366 -0.163654 0
-0.134209 -0.184197 0
-0.11916 -0.198913 0
-0.1012 -0.206082 0
-0.0811288 -0.20377 0
-0.0597475 -0.190039 0
-0.0389239 -0.16346 0
-0.0205263 -0.122602 0
-0.00680232 -0.0679529 0
0 0 0
0 0 0
-0.00624596 0.0708914 0
-0.0185265 0.126604 0
-0.0347184 0.167565 0
-0.0526984 0.194202 0
-0.0709255 0.20827 0
-0.0878582 0.211522 0
-0.10306 0.205969 0
-0.116093 0.19362 0
-0.126992 0.175848 0
-0.135793 0.154023 0
-0.142769 0.129053 0
-0.148199 0.101848 0
-0.152313 0.0728858 0
-0.155345 0.0426451 0
-0.157377 0.0114427 0
-0.158493 -0.0204047 0
-0.158559 -0.0525313 0
-0.15744 -0.0845713 0
-0.15477 -0.115884 0
-0.150185 -0.145829 0
-0.143198 -0.173168 0
-0.133324 -0.196662 0
-0.120357 -0.214409 0
-0.104093 -0.224507 0
-0.0850418 -0.224364 0
-0.0637126 -0.211389 0
-0.0421857 -0.183626 0
-0.0225408 -0.139123 0
-0.00755374 -0.0779057 0
0 0 0
0 0 0
-0.00666797 0.0801956 0
-0.0198356 0.141549 0
-0.0367989 0.18525 0
-0.0548542 0.212487 0
-0.0723666 0.225613 0
-0.0877012 0.22698 0
-0.100661 0.219069 0
-0.11105 0.204362 0
-0.119101 0.184378 0
-0.125049 0.160637 0
-0.129373 0.13408 0
-0.132552 0.105647 0
-0.134905 0.0757388 0
-0.136754 0.0447531 0
-0.138234 0.012903 0
-0.139481 -0.0195991 0
-0.140356 -0.0525134 0
-0.140719 -0.0856005 0
-0.140161 -0.118353 0
-0.138273 -0.150264 0
-0.134362 -0.180093 0
-0.127736 -0.206603 0
-0.117908 -0.227704 0
-0.104388 -0.241307 0
-0.0873479 -0.244143 0
-0.0669601 -0.232945 0
-0.0453365 -0.204928 0
-0.0245892 -0.15731 0
-0.00828729 -0.0892728 0
0 0 0
0 0 0
-0.00719502 0.0898661 0
-0.0215097 0.156948 0
-0.039192 0.203017 0
-0.0564898 0.229845 0
-0.0721403 0.24092 0
-0.084881 0.23973 0
-0.0945892 0.229054 0
-0.101143 0.211669 0
-0.105185 0.189366 0
-0.10736 0.163932 0
-0.108282 0.136222 0
-0.108564 0.107089 0
-0.108635 0.0768501 0
-0.108925 0.0458226 0
-0.109613 0.0140862 0
-0.110877 -0.0182797 0
-0.112601 -0.051191 0
-0.114671 -0.0845639 0
-0.116629 -0.118037 0
-0.118018 -0.151249 0
-0.118025 -0.183129 0
-0.115837 -0.212605 0
-0.110464 -0.237304 0
-0.100913 -0.254853 0
-0.0871319 -0.261489 0
-0.069066 -0.253447 0
-0.048393 -0.22648 0
-0.0267904 -0.176342 0
-0.00905907 -0.101394 0
0 0 0
0 0 0
-0.00807964 0.100554 0
-0.0232167 0.172911 0
-0.0408873 0.220168 0
-0.0565674 0.245422 0
-0.0692663 0.253358 0
-0.0779934 0.248658 0
-0.082955 0.234572 0
-0.0843576 0.214347 0
-0.08327 0.189905 0
-0.0807613 0.163166 0
-0.0775547 0.13485 0
-0.0743734 0.105677 0
-0.0717325 0.0758513 0
-0.0701471 0.0455785 0
-0.0698267 0.0147953 0
-0.0709805 -0.0165607 0
-0.0735362 -0.048571 0
-0.0774212 -0.0813172 0
-0.0821646 -0.114619 0
-0.0872954 -0.148295 0
-0.0919392 -0.18152 0
-0.0952219 -0.213469 0
-0.0956647 -0.241689 0
-0.0917888 -0.26373 0
-0.0830047 -0.275183 0
-0.0687234 -0.271637 0
-0.0502193 -0.247217 0
-0.0287672 -0.196046 0
-0.0101123 -0.114762 0
0 0 0
0 0 0
-0.00957437 0.112912 0
-0.0246246 0.18955 0
-0.0408749 0.236004 0
-0.0540495 0.258366 0
-0.0627641 0.262095 0
-0.0656342 0.252648 0
-0.0638698 0.234269 0
-0.0586806 0.211199 0
-0.051382 0.185091 0
-0.0432895 0.157597 0
-0.0352525 0.129332 0
-0.0281204 0.100914 0
-0.0224273 0.0723739 0
-0.0187073 0.0437454 0
-0.0171871 0.0148336 0
-0.0180936 -0.0145562 0
-0.021404 -0.0446605 0
-0.0270955 -0.0757162 0
-0.0347576 -0.107781 0
-0.0439797 -0.140911 0
-0.0538578 -0.174513 0
-0.063488 -0.207995 0
-0.0711528 -0.239338 0
-0.0751346 -0.266522 0
-0.0735774 -0.284008 0
-0.0646253 -0.286258 0
-0.0496799 -0.266072 0
-0.0301425 -0.216251 0
-0.0116903 -0.129869 0
0 0 0
0 0 0
-0.0105138 0.125622 0
-0.0253315 0.20544 0
-0.0393921 0.249116 0
-0.0476347 0.266312 0
-0.0493794 0.26398 0
-0.0439457 0.249072 0
-0.0335584 0.226468 0
-0.020442 0.20105 0
-0.00604373 0.174041 0
0.00818905 0.146665 0
0.0213676 0.119382 0
0.032603 0.0926515 0
0.0414142 0.0663233 0
0.0473198 0.0402476 0
0.0501014 0.0141184 0
0.0495407 -0.0123705 0
0.0456082 -0.0395827 0
0.0382745 -0.0678819 0
0.0278237 -0.0975605 0
0.01454 -0.128911 0
-0.000752839 -0.161615 0
-0.0172307 -0.195355 0
-0.0331499 -0.22877 0
-0.0467665 -0.260498 0
-0.0550279 -0.284404 0
-0.0548817 -0.29435 0
-0.0465571 -0.281034 0
-0.0302836 -0.235151 0
-0.0125886 -0.14528 0
0 0 0
0 0 0
-0.00973271 0.137365 0
-0.0249357 0.219156 0
-0.0366762 0.258093 0
-0.0360218 0.266893 0
-0.0258579 0.255861 0
-0.00907018 0.235299 0
0.0117541 0.209491 0
0.0340278 0.182723 0
0.056222 0.155872 0
0.0768078 0.129812 0
0.0950478 0.104713 0
0.110205 0.0807414 0
0.121926 0.0576048 0
0.12986 0.0350091 0
0.133835 0.0125673 0
0.133679 -0.0101078 0
0.129313 -0.0334605 0
0.120657 -0.057935 0
0.107811 -0.083997 0
0.0908745 -0.112112 0
0.0704035 -0.142334 0
0.0469545 -0.174719 0
0.0221217 -0.208504 0
-0.00250054 -0.242929 0
-0.0235345 -0.272808 0
-0.0376024 -0.292954 0
-0.0406336 -0.29009 0
-0.0285573 -0.25094 0
-0.011603 -0.159558 0
0 0 0
0 0 0
-0.0090297 0.150806 0
-0.0198371 0.229403 0
-0.0227152 0.256986 0
-0.00795673 0.25475 0
0.0177442 0.234987 0
0.0476937 0.209992 0
0.079499 0.182772 0
0.110767 0.156334 0
0.140127 0.131187 0
0.166205 0.107838 0
0.188571 0.0861324 0
0.206793 0.0659136 0
0.220708 0.0468 0
0.230153 0.0284102 0
0.23503 0.0103237 0
0.235245 -0.00788031 0
0.230676 -0.0266706 0
0.221205 -0.0465161 0
0.206729 -0.0679654 0
0.187146 -0.0915666 0
0.162616 -0.11774 0
0.133298 -0.146906 0
0.100378 -0.178846 0
0.0650399 -0.213345 0
0.030163 -0.247033 0
-0.00137533 -0.276544 0
-0.0211213 -0.286402 0
-0.0206211 -0.261131 0
-0.0101542 -0.174431 0
0 0 0
0 0 0
-0.0102036 0.168609 0
-0.00643584 0.234885 0
0.0125034 0.239848 0
0.0478142 0.22452 0
0.0913708 0.198607 0
0.135047 0.171816 0
0.177107 0.145747 0
0.215815 0.121998 0
0.250382 0.10059 0
0.28002 0.0815448 0
0.304721 0.0644509 0
0.324479 0.0488981 0
0.339362 0.0344902 0
0.349438 0.020831 0
0.354705 0.00753079 0
0.355161 -0.00580025 0
0.350663 -0.0195898 0
0.341071 -0.0342657 0
0.326102 -0.0503407 0
0.305477 -0.0683278 0
0.278888 -0.0889017 0
0.246029 -0.112737 0
0.207333 -0.140104 0
0.163231 -0.171275 0
0.115324 -0.20489 0
0.0652116 -0.239594 0
0.0227678 -0.263128 0
-0.00213185 -0.263238 0
-0.00966269 -0.191627 0
0 0 0
0 0 0
0.01189 0.164938 0
0.0465506 0.213307 0
0.0962773 0.19889 0
0.153365 0.175466 0
0.211687 0.148705 0
0.265114 0.124276 0
0.313049 0.102523 0
0.35489 0.0837887 0
0.390691 0.0677496 0
0.420502 0.054081 0
0.444732 0.0422517 0
0.463788 0.0317302 0
0.477943 0.022181 0
0.487464 0.0132682 0
0.492434 0.00468359 0
0.492936 -0.00388122 0
0.488823 -0.0127612 0
0.479953 -0.0222913 0
0.46593 -0.0328625 0
0.446359 -0.0448659 0
0.42055 -0.0590514 0
0.38781 -0.076169 0
0.347672 -0.0967501 0
0.299665 -0.121326 0
0.243729 -0.15016 0
0.1798 -0.183517 0
0.115029 -0.21426 0
0.0565696 -0.235253 0
0.0147749 -0.1845 0
0 0 0
2.77334e-30 0 0
0.0823953 0.113956 0
0.170405 0.142378 0
0.255904 0.126323 0
0.33077 0.106852 0
0.395358 0.0872691 0
0.45002 0.0708783 0
0.495794 0.0572061 0
0.533712 0.045779 0
0.564754 0.0363308 0
0.589901 0.0285954 0
0.609837 0.0221183 0
0.62525 0.0164452 0
0.636508 0.0113781 0
0.64398 0.00671859 0
0.647794 0.00227694 0
0.648079 -0.00213682 0
0.644707 -0.00672775 0
0.637554 -0.0117009 0
0.626214 -0.0172706 0
0.610287 -0.0236513 0
0.58893 -0.0314214 0
0.561301 -0.0411591 0
0.526077 -0.0532564 0
0.481932 -0.0681054 0
0.427155 -0.086623 0
0.36003 -0.109726 0
0.279659 -0.133785 0
0.185143 -0.155172 0
0.0880621 -0.126404 0
2.77334e-30 0 0
0.25 0 0
0.359152 0.0481494 0
0.457447 0.0589808 0
0.540705 0.0505573 0
0.604744 0.0409422 0
0.654192 0.0318499 0
0.693678 0.0249951 0
0.724918 0.0197232 0
0.749631 0.0153794 0
0.769036 0.0118943 0
0.784354 0.00919824 0
0.796205 0.00703846 0
0.805206 0.00516213 0
0.81166 0.00350865 0
0.815865 0.00201744 0
0.817933 0.000614519 0
0.817973 -0.000774074 0
0.815904 -0.00222788 0
0.811645 -0.00382642 0
0.804917 -0.00562853 0
0.79544 -0.00769302 0
0.782567 -0.010306 0
0.765649 -0.0137538 0
0.743277 -0.0181606 0
0.714041 -0.0236509 0
0.675834 -0.0309968 0
0.626548 -0.0409707 0
0.560151 -0.0522003 0
0.470611 -0.0633135 0
0.364903 -0.0530125 0
0.25 0 0
1 0 0
1 0 0
1 0 0
1 0 0
1 0 0
1 0 0
1 0 0
1 0 0
1 0 0
1 0 0
1 0 0
1 0 0
1 0 0
1 0 0
1 0 0
1 0 0
1 0 0
1 0 0
1 0 0
1 0 0
1 0 0
1 0 0
1 0 0
1 0 0
1 0 0
1 0 0
1 0 0
1 0 0
1 0 0
1 0 0
1 0 0
      </DataArray> 
      <DataArray type="Float64" NumberOfComponents="3" Name="Real Velocity" format="ascii">
0 0 0
0 0 0
0 0 0
0 0 0
0 0 0
0 0 0
0 0 0
0 0 0
0 0 0
0 0 0
0 0 0
0 0 0
0 0 0
0 0 0
0 0 0
0 0 0