<?xml version="1.0"?>
<VTKFile type="UnstructuredGrid">
  <UnstructuredGrid>
  <Piece NumberOfPoints="3321"  NumberOfCells="1600">
    <Points>
      <DataArray type="Float64" NumberOfComponents="3" format="ascii">
0 0 0.1
1 0 0.1
1 0.5 0.1
0 0.5 0.1
0.025 0 0.1
0.05 0 0.1
0.075 0 0.1
0.1 0 0.1
0.125 0 0.1
0.15 0 0.1
0.175 0 0.1
0.2 0 0.1
0.225 0 0.1
0.25 0 0.1
0.275 0 0.1
0.3 0 0.1
0.325 0 0.1
0.35 0 0.1
0.375 0 0.1
0.4 0 0.1
0.425 0 0.1
0.45 0 0.1
0.475 0 0.1
0.5 0 0.1
0.525 0 0.1
0.55 0 0.1
0.575 0 0.1
0.6 0 0.1
0.625 0 0.1
0.65 0 0.1
0.675 0 0.1
0.7 0 0.1
0.725 0 0.1
0.75 0 0.1
0.775 0 0.1
0.8 0 0.1
0.825 0 0.1
0.85 0 0.1
0.875 0 0.1
0.9 0 0.1
0.925 0 0.1
0.95 0 0.1
0.975 0 0.1
0.0125 0 0.1
0.0375 0 0.1
0.0625 0 0.1
0.0875 0 0.1
0.1125 0 0.1
0.1375 0 0.1
0.1625 0 0.1
0.1875 0 0.1
0.2125 0 0.1
0.2375 0 0.1
0.2625 0 0.1
0.2875 0 0.1
0.3125 0 0.1
0.3375 0 0.1
0.3625 0 0.1
0.3875 0 0.1
0.4125 0 0.1
0.4375 0 0.1
0.4625 0 0.1
0.4875 0 0.1
0.5125 0 0.1
0.5375 0 0.1
0.5625 0 0.1
0.5875 0 0.1
0.6125 0 0.1
0.6375 0 0.1
0.6625 0 0.1
0.6875 0 0.1
0.7125 0 0.1
0.7375 0 0.1
0.7625 0 0.1
0.7875 0 0.1
0.8125 0 0.1
0.8375 0 0.1
0.8625 0 0.1
0.8875 0 0.1
0.9125 0 0.1
0.9375 0 0.1
0.9625 0 0.1
0.9875 0 0.1
1 0.025 0.1
1 0.05 0.1
1 0.075 0.1
1 0.1 0.1
1 0.125 0.1
1 0.15 0.1
1 0.175 0.1
1 0.2 0.1
1 0.225 0.1
1 0.25 0.1
1 0.275 0.1
1 0.3 0.1
1 0.325 0.1
1 0.35 0.1
1 0.375 0.1
1 0.4 0.1
1 0.425 0.1
1 0.45 0.1
1 0.475 0.1
1 0.0125 0.1
1 0.0375 0.1
1 0.0625 0.1
1 0.0875 0.1
1 0.1125 0.1
1 0.1375 0.1
1 0.1625 0.1
1 0.1875 0.1
1 0.2125 0.1
1 0.2375 0.1
1 0.2625 0.1
1 0.2875 0.1
1 0.3125 0.1
1 0.3375 0.1
1 0.3625 0.1
1 0.3875 0.1
1 0.4125 0.1
1 0.4375 0.1
1 0.4625 0.1
1 0.4875 0.1
0.975 0.5 0.1
0.95 0.5 0.1
0.925 0.5 0.1
0.9 0.5 0.1
0.875 0.5 0.1
0.85 0.5 0.1
0.825 0.5 0.1
0.8 0.5 0.1
0.775 0.5 0.1
0.75 0.5 0.1
0.725 0.5 0.1
0.7 0.5 0.1
0.675 0.5 0.1
0.65 0.5 0.1
0.625 0.5 0.1
0.6 0.5 0.1
0.575 0.5 0.1
0.55 0.5 0.1
0.525 0.5 0.1
0.5 0.5 0.1
0.475 0.5 0.1
0.45 0.5 0.1
0.425 0.5 0.1
0.4 0.5 0.1
0.375 0.5 0.1
0.35 0.5 0.1
0.325 0.5 0.1
0.3 0.5 0.1
0.275 0.5 0.1
0.25 0.5 0.1
0.225 0.5 0.1
0.2 0.5 0.1
0.175 0.5 0.1
0.15 0.5 0.1
0.125 0.5 0.1
0.1 0.5 0.1
0.075 0.5 0.1
0.05 0.5 0.1
0.025 0.5 0.1
0.9875 0.5 0.1
0.9625 0.5 0.1
0.9375 0.5 0.1
0.9125 0.5 0.1
0.8875 0.5 0.1
0.8625 0.5 0.1
0.8375 0.5 0.1
0.8125 0.5 0.1
0.7875 0.5 0.1
0.7625 0.5 0.1
0.7375 0.5 0.1
0.7125 0.5 0.1
0.6875 0.5 0.1
0.6625 0.5 0.1
0.6375 0.5 0.1
0.6125 0.5 0.1
0.5875 0.5 0.1
0.5625 0.5 0.1
0.5375 0.5 0.1
0.5125 0.5 0.1
0.4875 0.5 0.1
0.4625 0.5 0.1
0.4375 0.5 0.1
0.4125 0.5 0.1
0.3875 0.5 0.1
0.3625 0.5 0.1
0.3375 0.5 0.1
0.3125 0.5 0.1
0.2875 0.5 0.1
0.2625 0.5 0.1
0.2375 0.5 0.1
0.2125 0.5 0.1
0.1875 0.5 0.1
0.1625 0.5 0.1
0.1375 0.5 0.1
0.1125 0.5 0.1
0.0875 0.5 0.1
0.0625 0.5 0.1
0.0375 0.5 0.1
0.0125 0.5 0.1
0 0.475 0.1
0 0.45 0.1
0 0.425 0.1
0 0.4 0.1
0 0.375 0.1
0 0.35 0.1
0 0.325 0.1
0 0.3 0.1
0 0.275 0.1
0 0.25 0.1
0 0.225 0.1
0 0.2 0.1
0 0.175 0.1
0 0.15 0.1
0 0.125 0.1
0 0.1 0.1
0 0.075 0.1
0 0.05 0.1
0 0.025 0.1
0 0.4875 0.1
0 0.4625 0.1
0 0.4375 0.1
0 0.4125 0.1
0 0.3875 0.1
0 0.3625 0.1
0 0.3375 0.1
0 0.3125 0.1
0 0.2875 0.1
0 0.2625 0.1
0 0.2375 0.1
0 0.2125 0.1
0 0.1875 0.1
0 0.1625 0.1
0 0.1375 0.1
0 0.1125 0.1
0 0.0875 0.1
0 0.0625 0.1
0 0.0375 0.1
0 0.0125 0.1
0.975 0.475 0.1
0.975 0.45 0.1
0.975 0.425 0.1
0.975 0.4 0.1
0.975 0.375 0.1
0.975 0.35 0.1
0.975 0.325 0.1
0.975 0.3 0.1
0.975 0.275 0.1
0.975 0.25 0.1
0.975 0.225 0.1
0.975 0.2 0.1
0.975 0.175 0.1
0.975 0.15 0.1
0.975 0.125 0.1
0.975 0.1 0.1
0.975 0.075 0.1
0.975 0.05 0.1
0.975 0.025 0.1
0.95 0.475 0.1
0.95 0.45 0.1
0.95 0.425 0.1
0.95 0.4 0.1
0.95 0.375 0.1
0.95 0.35 0.1
0.95 0.325 0.1
0.95 0.3 0.1
0.95 0.275 0.1
0.95 0.25 0.1
0.95 0.225 0.1
0.95 0.2 0.1
0.95 0.175 0.1
0.95 0.15 0.1
0.95 0.125 0.1
0.95 0.1 0.1
0.95 0.075 0.1
0.95 0.05 0.1
0.95 0.025 0.1
0.925 0.475 0.1
0.925 0.45 0.1
0.925 0.425 0.1
0.925 0.4 0.1
0.925 0.375 0.1
0.925 0.35 0.1
0.925 0.325 0.1
0.925 0.3 0.1
0.925 0.275 0.1
0.925 0.25 0.1
0.925 0.225 0.1
0.925 0.2 0.1
0.925 0.175 0.1
0.925 0.15 0.1
0.925 0.125 0.1
0.925 0.1 0.1
0.925 0.075 0.1
0.925 0.05 0.1
0.925 0.025 0.1
0.9 0.475 0.1
0.9 0.45 0.1
0.9 0.425 0.1
0.9 0.4 0.1
0.9 0.375 0.1
0.9 0.35 0.1
0.9 0.325 0.1
0.9 0.3 0.1
0.9 0.275 0.1
0.9 0.25 0.1
0.9 0.225 0.1
0.9 0.2 0.1
0.9 0.175 0.1
0.9 0.15 0.1
0.9 0.125 0.1
0.9 0.1 0.1
0.9 0.075 0.1
0.9 0.05 0.1
0.9 0.025 0.1
0.875 0.475 0.1
0.875 0.45 0.1
0.875 0.425 0.1
0.875 0.4 0.1
0.875 0.375 0.1
0.875 0.35 0.1
0.875 0.325 0.1
0.875 0.3 0.1
0.875 0.275 0.1
0.875 0.25 0.1
0.875 0.225 0.1
0.875 0.2 0.1
0.875 0.175 0.1
0.875 0.15 0.1
0.875 0.125 0.1
0.875 0.1 0.1
0.875 0.075 0.1
0.875 0.05 0.1
0.875 0.025 0.1
0.85 0.475 0.1
0.85 0.45 0.1
0.85 0.425 0.1
0.85 0.4 0.1
0.85 0.375 0.1
0.85 0.35 0.1
0.85 0.325 0.1
0.85 0.3 0.1
0.85 0.275 0.1
0.85 0.25 0.1
0.85 0.225 0.1
0.85 0.2 0.1
0.85 0.175 0.1
0.85 0.15 0.1
0.85 0.125 0.1
0.85 0.1 0.1
0.85 0.075 0.1
0.85 0.05 0.1
0.85 0.025 0.1
0.825 0.475 0.1
0.825 0.45 0.1
0.825 0.425 0.1
0.825 0.4 0.1
0.825 0.375 0.1
0.825 0.35 0.1
0.825 0.325 0.1
0.825 0.3 0.1
0.825 0.275 0.1
0.825 0.25 0.1
0.825 0.225 0.1
0.825 0.2 0.1
0.825 0.175 0.1
0.825 0.15 0.1
0.825 0.125 0.1
0.825 0.1 0.1
0.825 0.075 0.1
0.825 0.05 0.1
0.825 0.025 0.1
0.8 0.475 0.1
0.8 0.45 0.1
0.8 0.425 0.1
0.8 0.4 0.1
0.8 0.375 0.1
0.8 0.35 0.1
0.8 0.325 0.1
0.8 0.3 0.1
0.8 0.275 0.1
0.8 0.25 0.1
0.8 0.225 0.1
0.8 0.2 0.1
0.8 0.175 0.1
0.8 0.15 0.1
0.8 0.125 0.1
0.8 0.1 0.1
0.8 0.075 0.1
0.8 0.05 0.1
0.8 0.025 0.1
0.775 0.475 0.1
0.775 0.45 0.1
0.775 0.425 0.1
0.775 0.4 0.1
0.775 0.375 0.1
0.775 0.35 0.1
0.775 0.325 0.1
0.775 0.3 0.1
0.775 0.275 0.1
0.775 0.25 0.1
0.775 0.225 0.1
0.775 0.2 0.1
0.775 0.175 0.1
0.775 0.15 0.1
0.775 0.125 0.1
0.775 0.1 0.1
0.775 0.075 0.1
0.775 0.05 0.1
0.775 0.025 0.1
0.75 0.475 0.1
0.75 0.45 0.1
0.75 0.425 0.1
0.75 0.4 0.1
0.75 0.375 0.1
0.75 0.35 0.1
0.75 0.325 0.1
0.75 0.3 0.1
0.75 0.275 0.1
0.75 0.25 0.1
0.75 0.225 0.1
0.75 0.2 0.1
0.75 0.175 0.1
0.75 0.15 0.1
0.75 0.125 0.1
0.75 0.1 0.1
0.75 0.075 0.1
0.75 0.05 0.1
0.75 0.025 0.1
0.725 0.475 0.1
0.725 0.45 0.1
0.725 0.425 0.1
0.725 0.4 0.1
0.725 0.375 0.1
0.725 0.35 0.1
0.725 0.325 0.1
0.725 0.3 0.1
0.725 0.275 0.1
0.725 0.25 0.1
0.725 0.225 0.1
0.725 0.2 0.1
0.725 0.175 0.1
0.725 0.15 0.1
0.725 0.125 0.1
0.725 0.1 0.1
0.725 0.075 0.1
0.725 0.05 0.1
0.725 0.025 0.1
0.7 0.475 0.1
0.7 0.45 0.1
0.7 0.425 0.1
0.7 0.4 0.1
0.7 0.375 0.1
0.7 0.35 0.1
0.7 0.325 0.1
0.7 0.3 0.1
0.7 0.275 0.1
0.7 0.25 0.1
0.7 0.225 0.1
0.7 0.2 0.1
0.7 0.175 0.1
0.7 0.15 0.1
0.7 0.125 0.1
0.7 0.1 0.1
0.7 0.075 0.1
0.7 0.05 0.1
0.7 0.025 0.1
0.675 0.475 0.1
0.675 0.45 0.1
0.675 0.425 0.1
0.675 0.4 0.1
0.675 0.375 0.1
0.675 0.35 0.1
0.675 0.325 0.1
0.675 0.3 0.1
0.675 0.275 0.1
0.675 0.25 0.1
0.675 0.225 0.1
0.675 0.2 0.1
0.675 0.175 0.1
0.675 0.15 0.1
0.675 0.125 0.1
0.675 0.1 0.1
0.675 0.075 0.1
0.675 0.05 0.1
0.675 0.025 0.1
0.65 0.475 0.1
0.65 0.45 0.1
0.65 0.425 0.1
0.65 0.4 0.1
0.65 0.375 0.1
0.65 0.35 0.1
0.65 0.325 0.1
0.65 0.3 0.1
0.65 0.275 0.1
0.65 0.25 0.1
0.65 0.225 0.1
0.65 0.2 0.1
0.65 0.175 0.1
0.65 0.15 0.1
0.65 0.125 0.1
0.65 0.1 0.1
0.65 0.075 0.1
0.65 0.05 0.1
0.65 0.025 0.1
0.625 0.475 0.1
0.625 0.45 0.1
0.625 0.425 0.1
0.625 0.4 0.1
0.625 0.375 0.1
0.625 0.35 0.1
0.625 0.325 0.1
0.625 0.3 0.1
0.625 0.275 0.1
0.625 0.25 0.1
0.625 0.225 0.1
0.625 0.2 0.1
0.625 0.175 0.1
0.625 0.15 0.1
0.625 0.125 0.1
0.625 0.1 0.1
0.625 0.075 0.1
0.625 0.05 0.1
0.625 0.025 0.1
0.6 0.475 0.1
0.6 0.45 0.1
0.6 0.425 0.1
0.6 0.4 0.1
0.6 0.375 0.1
0.6 0.35 0.1
0.6 0.325 0.1
0.6 0.3 0.1
0.6 0.275 0.1
0.6 0.25 0.1
0.6 0.225 0.1
0.6 0.2 0.1
0.6 0.175 0.1
0.6 0.15 0.1
0.6 0.125 0.1
0.6 0.1 0.1
0.6 0.075 0.1
0.6 0.05 0.1
0.6 0.025 0.1
0.575 0.475 0.1
0.575 0.45 0.1
0.575 0.425 0.1
0.575 0.4 0.1
0.575 0.375 0.1
0.575 0.35 0.1
0.575 0.325 0.1
0.575 0.3 0.1
0.575 0.275 0.1
0.575 0.25 0.1
0.575 0.225 0.1
0.575 0.2 0.1
0.575 0.175 0.1
0.575 0.15 0.1
0.575 0.125 0.1
0.575 0.1 0.1
0.575 0.075 0.1
0.575 0.05 0.1
0.575 0.025 0.1
0.55 0.475 0.1
0.55 0.45 0.1
0.55 0.425 0.1
0.55 0.4 0.1
0.55 0.375 0.1
0.55 0.35 0.1
0.55 0.325 0.1
0.55 0.3 0.1
0.55 0.275 0.1
0.55 0.25 0.1
0.55 0.225 0.1
0.55 0.2 0.1
0.55 0.175 0.1
0.55 0.15 0.1
0.55 0.125 0.1
0.55 0.1 0.1
0.55 0.075 0.1
0.55 0.05 0.1
0.55 0.025 0.1
0.525 0.475 0.1
0.525 0.45 0.1
0.525 0.425 0.1
0.525 0.4 0.1
0.525 0.375 0.1
0.525 0.35 0.1
0.525 0.325 0.1
0.525 0.3 0.1
0.525 0.275 0.1
0.525 0.25 0.1
0.525 0.225 0.1
0.525 0.2 0.1
0.525 0.175 0.1
0.525 0.15 0.1
0.525 0.125 0.1
0.525 0.1 0.1
0.525 0.075 0.1
0.525 0.05 0.1
0.525 0.025 0.1
0.5 0.475 0.1
0.5 0.45 0.1
0.5 0.425 0.1
0.5 0.4 0.1
0.5 0.375 0.1
0.5 0.35 0.1
0.5 0.325 0.1
0.5 0.3 0.1
0.5 0.275 0.1
0.5 0.25 0.1
0.5 0.225 0.1
0.5 0.2 0.1
0.5 0.175 0.1
0.5 0.15 0.1
0.5 0.125 0.1
0.5 0.1 0.1
0.5 0.075 0.1
0.5 0.05 0.1
0.5 0.025 0.1
0.475 0.475 0.1
0.475 0.45 0.1
0.475 0.425 0.1
0.475 0.4 0.1
0.475 0.375 0.1
0.475 0.35 0.1
0.475 0.325 0.1
0.475 0.3 0.1
0.475 0.275 0.1
0.475 0.25 0.1
0.475 0.225 0.1
0.475 0.2 0.1
0.475 0.175 0.1
0.475 0.15 0.1
0.475 0.125 0.1
0.475 0.1 0.1
0.475 0.075 0.1
0.475 0.05 0.1
0.475 0.025 0.1
0.45 0.475 0.1
0.45 0.45 0.1
0.45 0.425 0.1
0.45 0.4 0.1
0.45 0.375 0.1
0.45 0.35 0.1
0.45 0.325 0.1
0.45 0.3 0.1
0.45 0.275 0.1
0.45 0.25 0.1
0.45 0.225 0.1
0.45 0.2 0.1
0.45 0.175 0.1
0.45 0.15 0.1
0.45 0.125 0.1
0.45 0.1 0.1
0.45 0.075 0.1
0.45 0.05 0.1
0.45 0.025 0.1
0.425 0.475 0.1
0.425 0.45 0.1
0.425 0.425 0.1
0.425 0.4 0.1
0.425 0.375 0.1
0.425 0.35 0.1
0.425 0.325 0.1
0.425 0.3 0.1
0.425 0.275 0.1
0.425 0.25 0.1
0.425 0.225 0.1
0.425 0.2 0.1
0.425 0.175 0.1
0.425 0.15 0.1
0.425 0.125 0.1
0.425 0.1 0.1
0.425 0.075 0.1
0.425 0.05 0.1
0.425 0.025 0.1
0.4 0.475 0.1
0.4 0.45 0.1
0.4 0.425 0.1
0.4 0.4 0.1
0.4 0.375 0.1
0.4 0.35 0.1
0.4 0.325 0.1
0.4 0.3 0.1
0.4 0.275 0.1
0.4 0.25 0.1
0.4 0.225 0.1
0.4 0.2 0.1
0.4 0.175 0.1
0.4 0.15 0.1
0.4 0.125 0.1
0.4 0.1 0.1
0.4 0.075 0.1
0.4 0.05 0.1
0.4 0.025 0.1
0.375 0.475 0.1
0.375 0.45 0.1
0.375 0.425 0.1
0.375 0.4 0.1
0.375 0.375 0.1
[...]
    <PointData>
      <DataArray type="Float64" NumberOfComponents="3" Name="Velocity" format="ascii">
0 0 0
0 0 0
0 0 0
0 0 0
0 0 0
0 0 0
0 0 0
0 0 0
0 0 0
0 0 0
0 0 0
0 0 0
0 0 0
0 0 0
0 0 0
0 0 0
0 0 0
0 0 0
0 0 0
0 0 0
0 0 0
0 0 0
0 0 0
0 0 0
0 0 0
0 0 0
0 0 0
0 0 0
0 0 0
0 0 0
0 0 0
0 0 0
0 0 0
0 0 0
0 0 0
0 0 0
0 0 0
0 0 0
0 0 0
0 0 0
0 0 0
0 0 0
0 0 0
0 0 0
0 0 0
0 0 0
0 0 0
0 0 0
0 0 0
0 0 0
0 0 0
0 0 0
0 0 0
0 0 0
0 0 0
0 0 0
0 0 0
0 0 0
0 0 0
0 0 0
0 0 0
0 0 0
0 0 0
0 0 0
0 0 0
0 0 0
0 0 0
0 0 0
0 0 0
0 0 0
0 0 0
0 0 0
0 0 0
0 0 0
0 0 0
0 0 0
0 0 0
0 0 0
0 0 0
0 0 0
0 0 0
0 0 0
0 0 0
0 0 0
0 0 0
0 0 0
0 0 0
0 0 0
0 0 0
0 0 0
0 0 0
0 0 0
0 0 0
0 0 0
0 0 0
0 0 0
0 0 0
0 0 0
0 0 0
0 0 0
0 0 0
0 0 0
0 0 0
0 0 0
0 0 0
0 0 0
0 0 0
0 0 0
0 0 0
0 0 0
0 0 0
0 0 0
0 0 0
0 0 0
0 0 0
0 0 0
0 0 0
0 0 0
0 0 0
0 0 0
0 0 0
0 0 0
0.00532923 0.0552309 0
-0.00348543 0.0334616 0
-0.00586064 0.0257532 0
-0.0105224 0.0132709 0
-0.0156494 0.00571887 0
-0.0234277 -0.000949786 0
-0.030245 -0.00356157 0
-0.0359838 -0.00596605 0
-0.0413419 -0.00781237 0
-0.046131 -0.00730983 0
-0.0512994 -0.00420085 0
-0.0568824 -0.00564903 0
-0.0594936 -0.00735731 0
-0.0636633 -0.00565568 0
-0.066649 -0.0055881 0
-0.0670479 -0.00310243 0
-0.0678075 -0.00139049 0
-0.0666324 0.00225637 0
-0.0675607 0.00441895 0
-0.0668218 0.00657563 0
-0.0667775 0.00879747 0
-0.066273 0.0108743 0
-0.0649529 0.0131717 0
-0.0632037 0.0156011 0
-0.0622546 0.0171332 0
-0.059667 0.0189231 0
-0.0574795 0.0210368 0
-0.0551601 0.0226065 0
-0.050729 0.0245105 0
-0.0438243 0.0241571 0
-0.0372026 0.0241534 0
-0.0347382 0.025594 0
-0.0312764 0.0223433 0
-0.0234643 0.0156269 0
-0.0175883 0.011764 0
-0.0134761 -0.00370866 0
-0.00805858 -0.0163095 0
-0.00253912 -0.0189494 0
0.000416391 -0.032562 0
0.00808298 0.0584776 0
0.00219979 0.0458401 0
-0.00318013 0.0328465 0
-0.00657731 0.0232213 0
-0.0115523 0.0138695 0
-0.0184267 0.00537331 0
-0.0259092 0.000930522 0
-0.0323025 -0.00178313 0
-0.0378472 -0.0044501 0
-0.0431895 -0.0054952 0
-0.0478392 -0.00362246 0
-0.0535368 -0.00288707 0
-0.0582509 -0.00572774 0
-0.0601928 -0.00290976 0
-0.0653626 -0.00365479 0
-0.0664845 -0.0039949 0
-0.0672046 -0.000554091 0
-0.0665487 0.00183045 0
-0.0673593 0.00403975 0
-0.0670454 0.00611646 0
-0.0668754 0.00792274 0
-0.0667297 0.00991009 0
-0.0656518 0.0124155 0
-0.0640687 0.0144516 0
-0.0629507 0.0159665 0
-0.0615045 0.0176848 0
-0.058831 0.0195018 0
-0.0566233 0.0209217 0
-0.0536107 0.0226775 0
-0.0478661 0.0235406 0
-0.0409831 0.0228958 0
-0.0366176 0.0229461 0
-0.0343342 0.0219764 0
-0.0283788 0.0161282 0
-0.0213591 0.0117858 0
-0.016841 0.00123426 0
-0.0121292 -0.0147666 0
-0.00801354 -0.021891 0
-0.00094128 -0.026218 0
-0.0120747 -0.0479434 0
0 0 0
0 0 0
0 0 0
0 0 0
0 0 0
0 0 0
0 0 0
0 0 0
0 0 0
0 0 0
0 0 0
0 0 0
0 0 0
0 0 0
0 0 0
0 0 0
0 0 0
0 0 0
0 0 0
0 0 0
0 0 0
0 0 0
0 0 0
0 0 0
0 0 0
0 0 0
0 0 0
0 0 0
0 0 0
0 0 0
0 0 0
0 0 0
0 0 0
0 0 0
0 0 0
0 0 0
0 0 0
0 0 0
0 0 0
-0.0190173 -0.0127518 0
-0.0116543 -0.0341516 0
0.00593888 -0.0393997 0
0.00752217 -0.0335945 0
0.000126234 -0.0220034 0
-0.000694322 -0.0172037 0
-0.0008136 -0.0148034 0
-0.000883079 -0.0131033 0
-0.000924435 -0.0116143 0
-0.000934284 -0.0101964 0
-0.000920969 -0.00881765 0
-0.000894282 -0.00747555 0
-0.00086106 -0.00617312 0
-0.000825025 -0.00491331 0
-0.000788265 -0.00369979 0
-0.000755001 -0.00254038 0
-0.000734323 -0.00145607 0
-0.000739023 -0.000504787 0
-0.000838598 0.000134107 0
-0.0202422 -0.0315977 0
-0.0148816 -0.0565845 0
-0.000291213 -0.0524284 0
0.00599508 -0.0392504 0
-0.00140968 -0.02957 0
-0.00245709 -0.025792 0
-0.00267242 -0.0230036 0
-0.00278381 -0.0205838 0
-0.00283984 -0.0183126 0
-0.002839 -0.0161114 0
-0.00279388 -0.0139624 0
-0.00272124 -0.0118681 0
-0.0026336 -0.00983492 0
-0.00253666 -0.00787054 0
-0.00242927 -0.00598642 0
-0.00230318 -0.00420605 0
-0.00213739 -0.00258118 0
-0.00188404 -0.00121528 0
-0.00143297 -0.000287097 0
-0.0150681 -0.0388894 0
-0.0176501 -0.0573783 0
-0.0108101 -0.0552514 0
0.00189637 -0.0436734 0
-0.00246744 -0.0341353 0
-0.00428426 -0.0303076 0
-0.00493798 -0.0274524 0
-0.00520137 -0.0247264 0
-0.0052871 -0.0220466 0
-0.00526398 -0.0194174 0
-0.00517083 -0.0168474 0
-0.00503536 -0.0143451 0
-0.00487461 -0.0119185 0
-0.00469345 -0.00957734 0
-0.00448249 -0.00733774 0
-0.00421266 -0.00523169 0
-0.00382253 -0.0033215 0
-0.00319278 -0.00171732 0
-0.00212246 -0.000604587 0
-0.0141522 -0.0407134 0
-0.0197652 -0.0564346 0
-0.0170805 -0.0554906 0
-0.00229469 -0.0478841 0
-0.00460417 -0.0379277 0
-0.00659213 -0.0332172 0
-0.00756096 -0.0299081 0
-0.00795384 -0.026897 0
-0.00805209 -0.0239722 0
-0.00798875 -0.0211126 0
-0.00783185 -0.0183253 0
-0.00762039 -0.015618 0
-0.00737433 -0.0129972 0
-0.00709551 -0.0104717 0
-0.006764 -0.00805805 0
-0.00632895 -0.00578839 0
-0.00569158 -0.00372163 0
-0.00467668 -0.00195497 0
-0.00301949 -0.000653193 0
-0.0171885 -0.0435403 0
-0.0227429 -0.0561095 0
-0.0202824 -0.0559395 0
-0.00562911 -0.0500311 0
-0.00776036 -0.0400296 0
-0.00956107 -0.0347342 0
-0.0105312 -0.0310317 0
-0.0109289 -0.0278079 0
-0.0109928 -0.0247475 0
-0.0108662 -0.0217829 0
-0.0106309 -0.0189061 0
-0.0103329 -0.016119 0
-0.0099936 -0.0134255 0
-0.0096106 -0.0108322 0
-0.00915311 -0.00835351 0
-0.0085501 -0.00601902 0
-0.00766919 -0.00388347 0
-0.00628213 -0.00204084 0
-0.00403351 -0.00067001 0
-0.0228206 -0.045945 0
-0.026958 -0.0561449 0
-0.0223115 -0.0550641 0
-0.00850058 -0.0497678 0
-0.0111668 -0.0401746 0
-0.012793 -0.0348746 0
-0.0136588 -0.0311001 0
-0.0139966 -0.0278283 0
-0.0139957 -0.0247442 0
-0.0137905 -0.0217703 0
-0.0134674 -0.0188922 0
-0.0130768 -0.0161088 0
-0.0126404 -0.0134217 0
-0.0121515 -0.0108357 0
-0.0115686 -0.00836329 0
-0.0108011 -0.00603179 0
-0.00968233 -0.00389417 0
-0.00792554 -0.00204542 0
-0.00506965 -0.000671037 0
-0.0295929 -0.0458828 0
-0.03236 -0.055469 0
-0.0253017 -0.0537405 0
-0.0110698 -0.0479298 0
-0.0141875 -0.039011 0
-0.0158869 -0.0340519 0
-0.0167424 -0.0304094 0
-0.0170374 -0.0272128 0
-0.0169703 -0.0241928 0
-0.0166831 -0.0212819 0
-0.0162695 -0.0184669 0
-0.0157848 -0.0157463 0
-0.0152513 -0.0131209 0
-0.014658 -0.0105947 0
-0.0139529 -0.00817879 0
-0.0130254 -0.00589934 0
-0.0116741 -0.00380815 0
-0.00955109 -0.00199953 0
-0.00609001 -0.000657196 0
-0.0352955 -0.0451295 0
-0.0372694 -0.053121 0
-0.0291789 -0.052056 0
-0.0140355 -0.0461265 0
-0.0170426 -0.0375353 0
-0.0188397 -0.0327442 0
-0.0197215 -0.0292315 0
-0.0199854 -0.026153 0
-0.0198549 -0.0232481 0
-0.019487 -0.0204499 0
-0.0189848 -0.0177447 0
-0.0184083 -0.0151306 0
-0.0177805 -0.0126079 0
-0.0170863 -0.0101802 0
-0.0162634 -0.00785831 0
-0.0151815 -0.00566727 0
-0.0136045 -0.00365742 0
-0.0111249 -0.00191991 0
-0.00707511 -0.000631786 0
-0.0397962 -0.043504 0
-0.0417285 -0.0502279 0
-0.0330799 -0.0498719 0
-0.0173354 -0.0441168 0
-0.0200135 -0.0358321 0
-0.0217542 -0.0311245 0
-0.0225985 -0.0277175 0
-0.0228092 -0.024773 0
-0.0226096 -0.0220134 0
-0.0221619 -0.0193621 0
-0.0215744 -0.0168008 0
-0.0209104 -0.0143259 0
-0.020193 -0.0119371 0
-0.0194029 -0.00963796 0
-0.0184678 -0.00743874 0
-0.0172383 -0.00536368 0
-0.0154449 -0.003461 0
-0.0126234 -0.00181739 0
-0.00801188 -0.000600511 0
-0.0441296 -0.0407345 0
-0.0457085 -0.0469756 0
-0.0362866 -0.0471938 0
-0.0207233 -0.0416797 0
-0.0230757 -0.0337476 0
-0.024623 -0.0291852 0
-0.025355 -0.0259256 0
-0.0254826 -0.0231449 0
-0.0252051 -0.0205567 0
-0.0246779 -0.0180778 0
-0.0240092 -0.0156859 0
-0.0232631 -0.0133752 0
-0.0224619 -0.0111448 0
-0.021582 -0.0089977 0
-0.0205414 -0.00694374 0
-0.0191724 -0.0050059 0
-0.0171741 -0.00322958 0
-0.0140296 -0.00169586 0
-0.00889042 -0.00056185 0
-0.048251 -0.0374509 0
-0.0489254 -0.0433212 0
-0.0392586 -0.0433699 0
-0.0239378 -0.0384635 0
-0.0260251 -0.03121 0
-0.0273511 -0.0269403 0
-0.0279461 -0.0238977 0
-0.0279776 -0.0213165 0
-0.027618 -0.0189236 0
-0.0270125 -0.0166377 0
-0.0262667 -0.0144351 0
-0.0254443 -0.0123084 0
-0.0245657 -0.0102559 0
-0.0236029 -0.00827978 0
-0.0224644 -0.00638922 0
-0.0209658 -0.00460542 0
-0.0187769 -0.0029702 0
-0.015332 -0.00155814 0
-0.0097027 -0.000515995 0
-0.0515902 -0.0343086 0
-0.0517561 -0.039197 0
-0.0421959 -0.0390705 0
-0.0267876 -0.0347527 0
-0.0286897 -0.0283164 0
-0.0298529 -0.0244457 0
-0.030331 -0.0216758 0
-0.0302699 -0.0193231 0
-0.0298287 -0.0171456 0
-0.0291473 -0.0150702 0
-0.0283291 -0.0130735 0
-0.0274362 -0.0111471 0
-0.0264869 -0.00928833 0
-0.0254485 -0.00749881 0
-0.0242208 -0.00578662 0
-0.0226038 -0.0041709 0
-0.0202406 -0.00268939 0
-0.0165209 -0.00140962 0
-0.0104424 -0.000466997 0
-0.0550898 -0.0311133 0
-0.0547183 -0.0344755 0
-0.0448982 -0.0343163 0
-0.0291627 -0.0307664 0
-0.0309975 -0.0252219 0
-0.0320917 -0.0217706 0
-0.032486 -0.0192937 0
-0.0323399 -0.0171885 0
-0.03182 -0.0152444 0
-0.0310665 -0.0133956 0
-0.0301811 -0.0116195 0
-0.0292241 -0.00990735 0
-0.0282111 -0.00825575 0
-0.0271048 -0.00666579 0
-0.0257971 -0.00514454 0
-0.0240737 -0.00370889 0
-0.0215539 -0.00239232 0
-0.0175873 -0.00125484 0
-0.0111052 -0.000419041 0
-0.0571859 -0.025606 0
-0.0578241 -0.0306019 0
-0.0472634 -0.0302047 0
-0.0312401 -0.0269801 0
-0.0330468 -0.02205 0
-0.0340864 -0.0189528 0
-0.0343979 -0.0167699 0
-0.034169 -0.0149297 0
-0.0335749 -0.0132371 0
-0.0327551 -0.0116305 0
-0.0318093 -0.0100884 0
-0.0307954 -0.00860233 0
-0.0297262 -0.00716907 0
-0.0285602 -0.00578937 0
-0.0271818 -0.00446934 0
-0.0253646 -0.00322364 0
-0.0227068 -0.00208126 0
-0.0185234 -0.00109357 0
-0.0116885 -0.000367878 0
-0.0597392 -0.0220811 0
-0.0596614 -0.0258754 0
-0.0494514 -0.0258337 0
-0.0332729 -0.0230404 0
-0.0349146 -0.0187521 0
-0.0358272 -0.0159898 0
-0.0360413 -0.0141188 0
-0.0357354 -0.0125658 0
-0.0350765 -0.0111421 0
-0.0341997 -0.00979087 0
-0.0332021 -0.00849377 0
-0.0321395 -0.00724362 0
-0.0310222 -0.00603773 0
-0.029805 -0.00487677 0
-0.0283659 -0.00376594 0
-0.0264679 -0.00271757 0
-0.0236919 -0.00175601 0
-0.0193238 -0.000924115 0
-0.0121892 -0.000314351 0
-0.0617337 -0.0173353 0
-0.0614524 -0.0207774 0
-0.0510815 -0.0207096 0
-0.0350666 -0.0186463 0
-0.0364202 -0.0151936 0
-0.0372148 -0.0129086 0
-0.0373777 -0.0113779 0
-0.0370196 -0.0101255 0
-0.0363119 -0.0089805 0
-0.03539 -0.00789333 0
-0.0343504 -0.00684903 0
-0.033248 -0.00584206 0
-0.0320913 -0.00487039 0
-0.0308318 -0.00393464 0
-0.0293424 -0.00303898 0
-0.0273775 -0.00219333 0
-0.0245038 -0.00141736 0
-0.0199833 -0.000745589 0
-0.0126023 -0.000256436 0
-0.0634102 -0.0135581 0
-0.0624348 -0.0160049 0
-0.0523272 -0.0159122 0
-0.0363719 -0.01407 0
-0.0375752 -0.011424 0
-0.0382873 -0.00981347 0
-0.0384132 -0.00859216 0
-0.0380188 -0.00763751 0
-0.0372756 -0.00677292 0
-0.0363196 -0.00595351 0
-0.0352479 -0.00516667 0
-0.0341148 -0.00440782 0
-0.0329273 -0.00367529 0
-0.0316348 -0.00296946 0
-0.030106 -0.00229343 0
-0.0280887 -0.00165466 0
-0.0251384 -0.00106804 0
-0.0204987 -0.000559468 0
-0.0129238 -0.000193682 0
-0.0646486 -0.00937075 0
-0.0634004 -0.0112275 0
-0.0532106 -0.0108595 0
-0.0372025 -0.00946536 0
-0.0384856 -0.00767252 0
-0.0391146 -0.00661515 0
-0.0391652 -0.00577622 0
-0.0387383 -0.00511978 0
-0.0379666 -0.00453439 0
-0.0369851 -0.00398436 0
-0.0358902 -0.00345779 0
-0.0347351 -0.00295032 0
-0.0335258 -0.0024603 0
-0.0322097 -0.00198773 0
-0.0306526 -0.00153461 0
-0.0285975 -0.00110606 0
-0.0255921 -0.000712459 0
-0.0208667 -0.000371198 0
-0.0131516 -0.000131991 0
-0.064848 -0.00482055 0
-0.0641801 -0.00609147 0
-0.0536776 -0.00581406 0
-0.0376921 -0.00496773 0
-0.0390143 -0.00395039 0
-0.0396327 -0.00336972 0
-0.0396391 -0.00292532 0
-0.0391776 -0.00257653 0
-0.0383824 -0.00227452 0
-0.0373835 -0.00199631 0
-0.036274 -0.00173216 0
-0.0351057 -0.00147821 0
-0.0338834 -0.00123286 0
-0.032553 -0.000995745 0
-0.0309787 -0.000767795 0
-0.0289004 -0.000551929 0
-0.0258611 -0.000354118 0
-0.021083 -0.000183554 0
-0.0132849 -7.41284e-05 0
-0.0651232 -0.000375224 0
-0.0643076 -0.00121564 0
-0.0538118 -0.00095718 0
-0.0378866 -0.000561813 0
-0.0392159 -0.000245639 0
-0.0398284 -0.000114912 0
-0.0398128 -4.60375e-05 0
-0.0393267 -1.38047e-05 0
-0.0385185 -2.08651e-06 0
-0.037512 1.10646e-06 0
-0.0363972 1.18629e-06 0
-0.0352244 4.06253e-07 0
-0.0339976 -4.51902e-08 0
-0.0326624 5.06232e-07 0
-0.031082 2.1726e-06 0
-0.0289954 4.34957e-06 0
-0.0259437 5.8882e-06 0
-0.0211473 7.02294e-06 0
-0.0133235 -1.00972e-05 0
-0.0647314 0.00430701 0
-0.0637873 0.00378401 0
-0.0535996 0.00402829 0
-0.037795 0.00391004 0
-0.0390956 0.0034831 0
-0.0396891 0.00314423 0
-0.0396636 0.00284481 0
-0.0391771 0.00255301 0
-0.0383719 0.00227081 0
-0.0373694 0.00199784 0
-0.0362586 0.00173348 0
-0.03509 0.00147778 0
-0.0338675 0.00123139 0
-0.0325369 0.000995263 0
-0.0309618 0.000770621 0
-0.0288822 0.000559321 0
-0.0258409 0.00036524 0
-0.0210617 0.000197624 0
-0.0132672 5.27236e-05 0
-0.0638195 0.00860587 0
-0.0633464 0.00873094 0
-0.0530894 0.00902064 0
-0.0373826 0.0084115 0
-0.0386286 0.0072138 0
-0.0392199 0.0063921 0
-0.0392071 0.00572138 0
-0.0387368 0.00510559 0
-0.0379467 0.00453177 0
-0.0369576 0.00398404 0
-0.0358595 0.00345617 0
-0.0347032 0.00294637 0
-0.0334934 0.00245484 0
-0.0321766 0.00198286 0
-0.0306184 0.00153276 0
-0.0285612 0.00110878 0
-0.0255529 0.000719586 0
-0.0208255 0.000383293 0
-0.0131168 0.000111758 0
-0.0624463 0.0133748 0
-0.0623826 0.0137504 0
-0.0522133 0.0138958 0
-0.0366193 0.012836 0
-0.0378309 0.0108887 0
-0.0384344 0.00959981 0
-0.0384582 0.00856278 0
-0.0380167 0.00763226 0
-0.0372489 0.00677102 0
-0.0362803 0.00595058 0
-0.0352023 0.00516079 0
-0.0340662 0.00439857 0
-0.0328774 0.00366374 0
-0.0315838 0.00295785 0
-0.0300535 0.00228427 0
-0.0280338 0.0016496 0
-0.0250808 0.00106725 0
-0.0204405 0.000564521 0
-0.0128752 0.000169334 0
-0.0608369 0.0178409 0
-0.0608901 0.0185259 0
-0.0509428 0.0186702 0
-0.0354263 0.0170943 0
-0.0367111 0.014469 0
-0.0373657 0.0127463 0
-0.037437 0.0113562 0
-0.0370238 0.0101256 0
-0.036282 0.0089796 0
-0.0353405 0.00788775 0
-0.0342905 0.00683802 0
-0.0331829 0.00582614 0
-0.0320235 0.00485125 0
-0.0307621 0.00391487 0
-0.0292708 0.00302133 0
-0.0273035 0.00217962 0
-0.0244279 0.00140788 0
-0.01991 0.000742369 0
-0.0125447 0.000226315 0
-0.0589753 0.0220441 0
-0.0589717 0.0234086 0
-0.0492506 0.0235505 0
-0.0338658 0.0211986 0
-0.0352927 0.0179069 0
-0.0360369 0.0158211 0
-0.0361361 0.0141056 0
-0.0357525 0.0125741 0
-0.0350453 0.0111436 0
-0.0341408 0.00978235 0
-0.0331285 0.0084764 0
-0.0320586 0.00721957 0
-0.0309375 0.00600983 0
-0.0297177 0.00484831 0
-0.0282761 0.00374016 0
-0.0263756 0.00269674 0
-0.0235991 0.00174072 0
-0.0192376 0.000916696 0
-0.0121272 0.000282405 0
-0.0572368 0.0262585 0
-0.0569323 0.0281433 0
-0.0471348 0.0282523 0
-0.0321029 0.0252305 0
-0.0335651 0.0212257 0
-0.0343716 0.0188051 0
-0.0345262 0.0167802 0
-0.0341951 0.0149495 0
-0.0335398 0.01324 0
-0.0326861 0.0116164 0
-0.0317229 0.0100619 0
-0.0307006 0.00856788 0
-0.0296273 0.00713102 0
-0.0284583 0.00575195 0
-0.027077 0.00443648 0
-0.0252573 0.00319834 0
-0.0226002 0.00206456 0
-0.0184273 0.0010872 0
-0.0116243 0.000337469 0
-0.0544702 0.0305498 0
-0.05436 0.0322073 0
-0.0448085 0.0324558 0
-0.0300708 0.029143 0
-0.0315674 0.0244748 0
-0.0323947 0.021646 0
-0.0326192 0.0193199 0
-0.032362 0.0172122 0
-0.0317759 0.0152411 0
-0.0309866 0.0133696 0
-0.0300838 0.0115789 0
-0.029119 0.00985903 0
-0.0281024 0.00820552 0
-0.0269936 0.00661873 0
-0.025683 0.00510519 0
-0.0239573 0.00368094 0
-0.0214391 0.00237745 0
-0.0174848 0.00125402 0
-0.0110381 0.000393714 0
-0.0508134 0.034247 0
-0.051238 0.0361296 0
-0.0425507 0.0365317 0
-0.0278013 0.0329252 0
-0.0292614 0.0275452 0
-0.0301436 0.0243002 0
-0.03045 0.0216878 0
-0.0302782 0.0193304 0
-0.0297726 0.0171221 0
-0.0290579 0.0150224 0
-0.0282247 0.013012 0
-0.0273262 0.0110806 0
-0.0263747 0.00922336 0
-0.0253346 0.0074408 0
-0.0241046 0.00574023 0
-0.0224856 0.00413981 0
-0.0201245 0.00267525 0
-0.0164173 0.00141264 0
-0.0103721 0.00044616 0
-0.047109 0.0367297 0
-0.0482661 0.040435 0
-0.0399895 0.0408166 0
-0.0251259 0.0365094 0
-0.0266578 0.0303766 0
-0.0276498 0.0267448 0
-0.0280517 0.0238685 0
-0.0279711 0.0212852 0
-0.027552 0.0188638 0
-0.0269185 0.0165576 0
-0.0261619 0.0143462 0
-0.0253366 0.0122196 0
-0.0244576 0.0101737 0
-0.0234941 0.00820939 0
-0.0223537 0.0063347 0
-0.0208529 0.00456968 0
-0.0186651 0.00295379 0
-0.0152307 0.00155971 0
-0.00963105 0.000493526 0
-0.0436695 0.0393987 0
-0.0457124 0.0446823 0
-0.0366368 0.0450815 0
-0.0219697 0.0398996 0
-0.0237843 0.032997 0
-0.0249265 0.0289734 0
-0.0254437 0.0258441 0
-0.0254643 0.023058 0
-0.0251369 0.0204484 0
-0.0245886 0.0179581 0
-0.0239131 0.0155656 0
-0.0231665 0.0132619 0
-0.0223664 0.0110442 0
-0.0214866 0.00891416 0
-0.0204439 0.00688062 0
-0.0190718 0.00496518 0
-0.0170723 0.00321068 0
-0.0139348 0.00169633 0
-0.00882179 0.000539196 0
-0.0401851 0.0421279 0
-0.0428905 0.0473094 0
-0.0329307 0.0487697 0
-0.0183185 0.0430444 0
-0.0206177 0.0353005 0
-0.0219868 0.0309025 0
-0.0226572 0.0275687 0
-0.0227888 0.0246214 0
-0.0225528 0.0218542 0
-0.0220896 0.0192035 0
-0.0214975 0.0166505 0
-0.020834 0.0141892 0
-0.0201184 0.0118187 0
-0.0193288 0.00954161 0
-0.0183914 0.00736748 0
-0.0171574 0.00531899 0
-0.0153598 0.00344167 0
-0.0125407 0.00182013 0
-0.00795042 0.000580628 0
-0.0356778 0.0448438 0
-0.0384439 0.0487085 0
-0.0300143 0.0500296 0
-0.0146238 0.0449805 0
-0.0173305 0.0369398 0
-0.0189629 0.0324205 0
-0.0197722 0.0290038 0
-0.0199893 0.0259507 0
-0.0198281 0.0230548 0
-0.0194436 0.0202653 0
-0.0189355 0.0175723 0
-0.0183593 0.014975 0
-0.0177337 0.0124739 0
-0.0170405 0.0100723 0
-0.0162154 0.00777982 0
-0.015128 0.00561981 0
-0.0135441 0.00363948 0
-0.0110617 0.00192738 0
-0.00702475 0.000617542 0
-0.0301604 0.0431564 0
-0.0334458 0.0494265 0
-0.0268664 0.0508503 0
-0.0119164 0.0456556 0
-0.0144441 0.0379962 0
-0.0160731 0.0336132 0
-0.0168708 0.0301706 0
-0.0171002 0.0270232 0
-0.0169851 0.0240076 0
-0.0166724 0.021095 0
-0.0162503 0.0182847 0
-0.0157665 0.0155777 0
-0.0152368 0.0129742 0
-0.014646 0.0104764 0
-0.0139396 0.00809386 0
-0.0130063 0.00584986 0
-0.0116458 0.00379242 0
-0.00951439 0.00201221 0
-0.00605508 0.00064796 0
-0.0255269 0.0443616 0
-0.0290536 0.0526176 0
-0.022621 0.0537428 0
-0.0096181 0.0476361 0
-0.0119334 0.0393131 0
-0.0132794 0.0346706 0
-0.0139293 0.0310581 0
-0.0141207 0.0277633 0
-0.0140405 0.0246216 0
-0.0138027 0.0216059 0
-0.0134731 0.0187108 0
-0.0130877 0.0159315 0
-0.0126594 0.0132639 0
-0.0121763 0.0107079 0
-0.011594 0.00827232 0
-0.010821 0.00598051 0
-0.00969174 0.00388088 0
-0.00792165 0.00206427 0
-0.00505519 0.000669444 0
-0.0222582 0.0438927 0
-0.0242171 0.0545905 0
-0.0182557 0.0572537 0
-0.00649107 0.050149 0
-0.00895777 0.0405264 0
-0.010286 0.035325 0
-0.0108709 0.0314365 0
-0.0110567 0.0279671 0
-0.0110318 0.0247217 0
-0.0108818 0.0216505 0
-0.0106518 0.0187271 0
-0.0103689 0.0159328 0
-0.0100448 0.0132563 0
-0.00967223 0.0106949 0
-0.00921765 0.0082568 0
-0.00860963 0.00596578 0
-0.00771763 0.00387108 0
-0.00631574 0.00206354 0
-0.00404659 0.000676344 0
-0.0193465 0.0370982 0
-0.0232549 0.053292 0
-0.0136001 0.0569845 0
-0.00310901 0.0487605 0
-0.00583406 0.039944 0
-0.00725788 0.0348836 0
-0.00780244 0.0308568 0
-0.00800711 0.0272871 0
-0.00805261 0.0240287 0
-0.00799375 0.0209994 0
-0.00786058 0.0181417 0
-0.007676 0.0154199 0
-0.00745307 0.0128161 0
-0.00718975 0.0103258 0
-0.00686313 0.00795707 0
-0.0064216 0.00573431 0
-0.00576982 0.00370777 0
-0.00473964 0.00197018 0
-0.00306786 0.000651636 0
-0.0196974 0.0366336 0
-0.0221173 0.0544043 0
-0.00769112 0.0582835 0
-0.000105648 0.0486625 0
-0.00372746 0.0383209 0
-0.00463658 0.0329429 0
-0.00495673 0.0287605 0
-0.00514501 0.025228 0
-0.00524408 0.0221264 0
-0.00525763 0.0192993 0
-0.00520345 0.0166523 0
-0.00510295 0.0141363 0
-0.00497083 0.0117296 0
-0.00480952 0.00942703 0
-0.00460532 0.00723662 0
-0.0043251 0.00518197 0
-0.00390879 0.00331194 0
-0.00324458 0.00171863 0
-0.00214872 0.000551882 0
-0.0227212 0.032968 0
-0.0176493 0.0496205 0
-0.00199901 0.0531587 0
0.00242068 0.0460674 0