<?xml version="1.0"?>
<VTKFile type="UnstructuredGrid">
  <UnstructuredGrid>
  <Piece NumberOfPoints="4488"  NumberOfCells="1024">
    <Points>
      <DataArray type="Float64" NumberOfComponents="3" format="ascii">
0 0 0.1
0.0125 0 0.1
0.025 0 0.1
0.0375 0 0.1
0.05 0 0.1
0.0625 0 0.1
0.075 0 0.1
0.0875 0 0.1
0.1 0 0.1
0.1125 0 0.1
0.125 0 0.1
0.1375 0 0.1
0.15 0 0.1
0.1625 0 0.1
0.175 0 0.1
0.1875 0 0.1
0.2 0 0.1
0 0.0125 0.1
0.0125 0.0125 0.1
0.025 0.0125 0.1
0.0375 0.0125 0.1
0.05 0.0125 0.1
0.0625 0.0125 0.1
0.075 0.0125 0.1
0.0875 0.0125 0.1
0.1 0.0125 0.1
0.1125 0.0125 0.1
0.125 0.0125 0.1
0.1375 0.0125 0.1
0.15 0.0125 0.1
0.1625 0.0125 0.1
0.175 0.0125 0.1
0.1875 0.0125 0.1
0.2 0.0125 0.1
0 0.025 0.1
0.0125 0.025 0.1
0.025 0.025 0.1
0.0375 0.025 0.1
0.05 0.025 0.1
0.0625 0.025 0.1
0.075 0.025 0.1
0.0875 0.025 0.1
0.1 0.025 0.1
0.1125 0.025 0.1
0.125 0.025 0.1
0.1375 0.025 0.1
0.15 0.025 0.1
0.1625 0.025 0.1
0.175 0.025 0.1
0.1875 0.025 0.1
0.2 0.025 0.1
0 0.0375 0.1
0.0125 0.0375 0.1
0.025 0.0375 0.1
0.0375 0.0375 0.1
0.05 0.0375 0.1
0.0625 0.0375 0.1
0.075 0.0375 0.1
0.0875 0.0375 0.1
0.1 0.0375 0.1
0.1125 0.0375 0.1
0.125 0.0375 0.1
0.1375 0.0375 0.1
0.15 0.0375 0.1
0.1625 0.0375 0.1
0.175 0.0375 0.1
0.1875 0.0375 0.1
0.2 0.0375 0.1
0 0.05 0.1
0.0125 0.05 0.1
0.025 0.05 0.1
0.0375 0.05 0.1
0.05 0.05 0.1
0.0625 0.05 0.1
0.075 0.05 0.1
0.0875 0.05 0.1
0.1 0.05 0.1
0.1125 0.05 0.1
0.125 0.05 0.1
0.1375 0.05 0.1
0.15 0.05 0.1
0.1625 0.05 0.1
0.175 0.05 0.1
0.1875 0.05 0.1
0.2 0.05 0.1
0 0.0625 0.1
0.0125 0.0625 0.1
0.025 0.0625 0.1
0.0375 0.0625 0.1
0.05 0.0625 0.1
0.0625 0.0625 0.1
0.075 0.0625 0.1
0.0875 0.0625 0.1
0.1 0.0625 0.1
0.1125 0.0625 0.1
0.125 0.0625 0.1
0.1375 0.0625 0.1
0.15 0.0625 0.1
0.1625 0.0625 0.1
0.175 0.0625 0.1
0.1875 0.0625 0.1
0.2 0.0625 0.1
0 0.075 0.1
0.0125 0.075 0.1
0.025 0.075 0.1
0.0375 0.075 0.1
0.05 0.075 0.1
0.0625 0.075 0.1
0.075 0.075 0.1
0.0875 0.075 0.1
0.1 0.075 0.1
0.1125 0.075 0.1
0.125 0.075 0.1
0.1375 0.075 0.1
0.15 0.075 0.1
0.1625 0.075 0.1
0.175 0.075 0.1
0.1875 0.075 0.1
0.2 0.075 0.1
0 0.0875 0.1
0.0125 0.0875 0.1
0.025 0.0875 0.1
0.0375 0.0875 0.1
0.05 0.0875 0.1
0.0625 0.0875 0.1
0.075 0.0875 0.1
0.0875 0.0875 0.1
0.1 0.0875 0.1
0.1125 0.0875 0.1
0.125 0.0875 0.1
0.1375 0.0875 0.1
0.15 0.0875 0.1
0.1625 0.0875 0.1
0.175 0.0875 0.1
0.1875 0.0875 0.1
0.2 0.0875 0.1
0 0.1 0.1
0.0125 0.1 0.1
0.025 0.1 0.1
0.0375 0.1 0.1
0.05 0.1 0.1
0.0625 0.1 0.1
0.075 0.1 0.1
0.0875 0.1 0.1
0.1 0.1 0.1
0.1125 0.1 0.1
0.125 0.1 0.1
0.1375 0.1 0.1
0.15 0.1 0.1
0.1625 0.1 0.1
0.175 0.1 0.1
0.1875 0.1 0.1
0.2 0.1 0.1
0 0.1125 0.1
0.0125 0.1125 0.1
0.025 0.1125 0.1
0.0375 0.1125 0.1
0.05 0.1125 0.1
0.0625 0.1125 0.1
0.075 0.1125 0.1
0.0875 0.1125 0.1
0.1 0.1125 0.1
0.1125 0.1125 0.1
0.125 0.1125 0.1
0.1375 0.1125 0.1
0.15 0.1125 0.1
0.1625 0.1125 0.1
0.175 0.1125 0.1
0.1875 0.1125 0.1
0.2 0.1125 0.1
0 0.125 0.1
0.0125 0.125 0.1
0.025 0.125 0.1
0.0375 0.125 0.1
0.05 0.125 0.1
0.0625 0.125 0.1
0.075 0.125 0.1
0.0875 0.125 0.1
0.1 0.125 0.1
0.1125 0.125 0.1
0.125 0.125 0.1
0.1375 0.125 0.1
0.15 0.125 0.1
0.1625 0.125 0.1
0.175 0.125 0.1
0.1875 0.125 0.1
0.2 0.125 0.1
0 0.1375 0.1
0.0125 0.1375 0.1
0.025 0.1375 0.1
0.0375 0.1375 0.1
0.05 0.1375 0.1
0.0625 0.1375 0.1
0.075 0.1375 0.1
0.0875 0.1375 0.1
0.1 0.1375 0.1
0.1125 0.1375 0.1
0.125 0.1375 0.1
0.1375 0.1375 0.1
0.15 0.1375 0.1
0.1625 0.1375 0.1
0.175 0.1375 0.1
0.1875 0.1375 0.1
0.2 0.1375 0.1
0 0.15 0.1
0.0125 0.15 0.1
0.025 0.15 0.1
0.0375 0.15 0.1
0.05 0.15 0.1
0.0625 0.15 0.1
0.075 0.15 0.1
0.0875 0.15 0.1
0.1 0.15 0.1
0.1125 0.15 0.1
0.125 0.15 0.1
0.1375 0.15 0.1
0.15 0.15 0.1
0.1625 0.15 0.1
0.175 0.15 0.1
0.1875 0.15 0.1
0.2 0.15 0.1
0 0.1625 0.1
0.0125 0.1625 0.1
0.025 0.1625 0.1
0.0375 0.1625 0.1
0.05 0.1625 0.1
0.0625 0.1625 0.1
0.075 0.1625 0.1
0.0875 0.1625 0.1
0.1 0.1625 0.1
0.1125 0.1625 0.1
0.125 0.1625 0.1
0.1375 0.1625 0.1
0.15 0.1625 0.1
0.1625 0.1625 0.1
0.175 0.1625 0.1
0.1875 0.1625 0.1
0.2 0.1625 0.1
0 0.175 0.1
0.0125 0.175 0.1
0.025 0.175 0.1
0.0375 0.175 0.1
0.05 0.175 0.1
0.0625 0.175 0.1
0.075 0.175 0.1
0.0875 0.175 0.1
0.1 0.175 0.1
0.1125 0.175 0.1
0.125 0.175 0.1
0.1375 0.175 0.1
0.15 0.175 0.1
0.1625 0.175 0.1
0.175 0.175 0.1
0.1875 0.175 0.1
0.2 0.175 0.1
0 0.1875 0.1
0.0125 0.1875 0.1
0.025 0.1875 0.1
0.0375 0.1875 0.1
0.05 0.1875 0.1
0.0625 0.1875 0.1
0.075 0.1875 0.1
0.0875 0.1875 0.1
0.1 0.1875 0.1
0.1125 0.1875 0.1
0.125 0.1875 0.1
0.1375 0.1875 0.1
0.15 0.1875 0.1
0.1625 0.1875 0.1
0.175 0.1875 0.1
0.1875 0.1875 0.1
0.2 0.1875 0.1
0 0.2 0.1
0.0125 0.2 0.1
0.025 0.2 0.1
0.0375 0.2 0.1
0.05 0.2 0.1
0.0625 0.2 0.1
0.075 0.2 0.1
0.0875 0.2 0.1
0.1 0.2 0.1
0.1125 0.2 0.1
0.125 0.2 0.1
0.1375 0.2 0.1
0.15 0.2 0.1
0.1625 0.2 0.1
0.175 0.2 0.1
0.1875 0.2 0.1
0.2 0.2 0.1
0.2 0 0.1
0.2125 0 0.1
0.225 0 0.1
0.2375 0 0.1
0.25 0 0.1
0.2625 0 0.1
0.275 0 0.1
0.2875 0 0.1
0.3 0 0.1
0.3125 0 0.1
0.325 0 0.1
0.3375 0 0.1
0.35 0 0.1
0.3625 0 0.1
0.375 0 0.1
0.3875 0 0.1
0.4 0 0.1
0.4125 0 0.1
0.425 0 0.1
0.4375 0 0.1
0.45 0 0.1
0.4625 0 0.1
0.475 0 0.1
0.4875 0 0.1
0.5 0 0.1
0.5125 0 0.1
0.525 0 0.1
0.5375 0 0.1
0.55 0 0.1
0.5625 0 0.1
0.575 0 0.1
0.5875 0 0.1
0.6 0 0.1
0.6125 0 0.1
0.625 0 0.1
0.6375 0 0.1
0.65 0 0.1
0.6625 0 0.1
0.675 0 0.1
0.6875 0 0.1
0.7 0 0.1
0.7125 0 0.1
0.725 0 0.1
0.7375 0 0.1
0.75 0 0.1
0.7625 0 0.1
0.775 0 0.1
0.7875 0 0.1
0.8 0 0.1
0.2 0.0125 0.1
0.2125 0.0125 0.1
0.225 0.0125 0.1
0.2375 0.0125 0.1
0.25 0.0125 0.1
0.2625 0.0125 0.1
0.275 0.0125 0.1
0.2875 0.0125 0.1
0.3 0.0125 0.1
0.3125 0.0125 0.1
0.325 0.0125 0.1
0.3375 0.0125 0.1
0.35 0.0125 0.1
0.3625 0.0125 0.1
0.375 0.0125 0.1
0.3875 0.0125 0.1
0.4 0.0125 0.1
0.4125 0.0125 0.1
0.425 0.0125 0.1
0.4375 0.0125 0.1
0.45 0.0125 0.1
0.4625 0.0125 0.1
0.475 0.0125 0.1
0.4875 0.0125 0.1
0.5 0.0125 0.1
0.5125 0.0125 0.1
0.525 0.0125 0.1
0.5375 0.0125 0.1
0.55 0.0125 0.1
0.5625 0.0125 0.1
0.575 0.0125 0.1
0.5875 0.0125 0.1
0.6 0.0125 0.1
0.6125 0.0125 0.1
0.625 0.0125 0.1
0.6375 0.0125 0.1
0.65 0.0125 0.1
0.6625 0.0125 0.1
0.675 0.0125 0.1
0.6875 0.0125 0.1
0.7 0.0125 0.1
0.7125 0.0125 0.1
0.725 0.0125 0.1
0.7375 0.0125 0.1
0.75 0.0125 0.1
0.7625 0.0125 0.1
0.775 0.0125 0.1
0.7875 0.0125 0.1
0.8 0.0125 0.1
0.2 0.025 0.1
0.2125 0.025 0.1
0.225 0.025 0.1
0.2375 0.025 0.1
0.25 0.025 0.1
0.2625 0.025 0.1
0.275 0.025 0.1
0.2875 0.025 0.1
0.3 0.025 0.1
0.3125 0.025 0.1
0.325 0.025 0.1
0.3375 0.025 0.1
0.35 0.025 0.1
0.3625 0.025 0.1
0.375 0.025 0.1
0.3875 0.025 0.1
0.4 0.025 0.1
0.4125 0.025 0.1
0.425 0.025 0.1
0.4375 0.025 0.1
0.45 0.025 0.1
0.4625 0.025 0.1
0.475 0.025 0.1
0.4875 0.025 0.1
0.5 0.025 0.1
0.5125 0.025 0.1
0.525 0.025 0.1
0.5375 0.025 0.1
0.55 0.025 0.1
0.5625 0.025 0.1
0.575 0.025 0.1
0.5875 0.025 0.1
0.6 0.025 0.1
0.6125 0.025 0.1
0.625 0.025 0.1
0.6375 0.025 0.1
0.65 0.025 0.1
0.6625 0.025 0.1
0.675 0.025 0.1
0.6875 0.025 0.1
0.7 0.025 0.1
0.7125 0.025 0.1
0.725 0.025 0.1
0.7375 0.025 0.1
0.75 0.025 0.1
0.7625 0.025 0.1
0.775 0.025 0.1
0.7875 0.025 0.1
0.8 0.025 0.1
0.2 0.0375 0.1
0.2125 0.0375 0.1
0.225 0.0375 0.1
0.2375 0.0375 0.1
0.25 0.0375 0.1
0.2625 0.0375 0.1
0.275 0.0375 0.1
0.2875 0.0375 0.1
0.3 0.0375 0.1
0.3125 0.0375 0.1
0.325 0.0375 0.1
0.3375 0.0375 0.1
0.35 0.0375 0.1
0.3625 0.0375 0.1
0.375 0.0375 0.1
0.3875 0.0375 0.1
0.4 0.0375 0.1
0.4125 0.0375 0.1
0.425 0.0375 0.1
0.4375 0.0375 0.1
0.45 0.0375 0.1
0.4625 0.0375 0.1
0.475 0.0375 0.1
0.4875 0.0375 0.1
0.5 0.0375 0.1
0.5125 0.0375 0.1
0.525 0.0375 0.1
0.5375 0.0375 0.1
0.55 0.0375 0.1
0.5625 0.0375 0.1
0.575 0.0375 0.1
0.5875 0.0375 0.1
0.6 0.0375 0.1
0.6125 0.0375 0.1
0.625 0.0375 0.1
0.6375 0.0375 0.1
0.65 0.0375 0.1
0.6625 0.0375 0.1
0.675 0.0375 0.1
0.6875 0.0375 0.1
0.7 0.0375 0.1
0.7125 0.0375 0.1
0.725 0.0375 0.1
0.7375 0.0375 0.1
0.75 0.0375 0.1
0.7625 0.0375 0.1
0.775 0.0375 0.1
0.7875 0.0375 0.1
0.8 0.0375 0.1
0.2 0.05 0.1
0.2125 0.05 0.1
0.225 0.05 0.1
0.2375 0.05 0.1
0.25 0.05 0.1
0.2625 0.05 0.1
0.275 0.05 0.1
0.2875 0.05 0.1
0.3 0.05 0.1
0.3125 0.05 0.1
0.325 0.05 0.1
0.3375 0.05 0.1
0.35 0.05 0.1
0.3625 0.05 0.1
0.375 0.05 0.1
0.3875 0.05 0.1
0.4 0.05 0.1
0.4125 0.05 0.1
0.425 0.05 0.1
0.4375 0.05 0.1
0.45 0.05 0.1
0.4625 0.05 0.1
0.475 0.05 0.1
0.4875 0.05 0.1
0.5 0.05 0.1
0.5125 0.05 0.1
0.525 0.05 0.1
0.5375 0.05 0.1
0.55 0.05 0.1
0.5625 0.05 0.1
0.575 0.05 0.1
0.5875 0.05 0.1
0.6 0.05 0.1
0.6125 0.05 0.1
0.625 0.05 0.1
0.6375 0.05 0.1
0.65 0.05 0.1
0.6625 0.05 0.1
0.675 0.05 0.1
0.6875 0.05 0.1
0.7 0.05 0.1
0.7125 0.05 0.1
0.725 0.05 0.1
0.7375 0.05 0.1
0.75 0.05 0.1
0.7625 0.05 0.1
0.775 0.05 0.1
0.7875 0.05 0.1
0.8 0.05 0.1
0.2 0.0625 0.1
0.2125 0.0625 0.1
0.225 0.0625 0.1
0.2375 0.0625 0.1
0.25 0.0625 0.1
0.2625 0.0625 0.1
0.275 0.0625 0.1
0.2875 0.0625 0.1
0.3 0.0625 0.1
0.3125 0.0625 0.1
0.325 0.0625 0.1
0.3375 0.0625 0.1
0.35 0.0625 0.1
0.3625 0.0625 0.1
0.375 0.0625 0.1
0.3875 0.0625 0.1
0.4 0.0625 0.1
0.4125 0.0625 0.1
0.425 0.0625 0.1
0.4375 0.0625 0.1
0.45 0.0625 0.1
0.4625 0.0625 0.1
0.475 0.0625 0.1
0.4875 0.0625 0.1
0.5 0.0625 0.1
0.5125 0.0625 0.1
0.525 0.0625 0.1
0.5375 0.0625 0.1
0.55 0.0625 0.1
0.5625 0.0625 0.1
0.575 0.0625 0.1
0.5875 0.0625 0.1
0.6 0.0625 0.1
0.6125 0.0625 0.1
0.625 0.0625 0.1
0.6375 0.0625 0.1
0.65 0.0625 0.1
0.6625 0.0625 0.1
0.675 0.0625 0.1
0.6875 0.0625 0.1
0.7 0.0625 0.1
0.7125 0.0625 0.1
0.725 0.0625 0.1
0.7375 0.0625 0.1
0.75 0.0625 0.1
0.7625 0.0625 0.1
0.775 0.0625 0.1
0.7875 0.0625 0.1
0.8 0.0625 0.1
0.2 0.075 0.1
0.2125 0.075 0.1
0.225 0.075 0.1
0.2375 0.075 0.1
0.25 0.075 0.1
0.2625 0.075 0.1
0.275 0.075 0.1
0.2875 0.075 0.1
0.3 0.075 0.1
0.3125 0.075 0.1
0.325 0.075 0.1
0.3375 0.075 0.1
0.35 0.075 0.1
0.3625 0.075 0.1
0.375 0.075 0.1
0.3875 0.075 0.1
0.4 0.075 0.1
0.4125 0.075 0.1
0.425 0.075 0.1
0.4375 0.075 0.1
0.45 0.075 0.1
0.4625 0.075 0.1
0.475 0.075 0.1
0.4875 0.075 0.1
0.5 0.075 0.1
0.5125 0.075 0.1
0.525 0.075 0.1
0.5375 0.075 0.1
0.55 0.075 0.1
0.5625 0.075 0.1
0.575 0.075 0.1
0.5875 0.075 0.1
0.6 0.075 0.1
0.6125 0.075 0.1
0.625 0.075 0.1
0.6375 0.075 0.1
0.65 0.075 0.1
[...]
    <PointData>
      <DataArray type="Float64" NumberOfComponents="3" Name="Velocity" format="ascii">
0 0 0
0 0 0
0 0 0
0 0 0
0 0 0
0 0 0
0 0 0
0 0 0
0 0 0
0 0 0
0 0 0
0 0 0
0 0 0
0 0 0
0 0 0
0 0 0
0 0 0
0 0 0
2.27033e-05 -2.27259e-05 0
5.25802e-05 -2.61064e-05 0
7.48531e-05 -1.57028e-05 0
7.4744e-05 2.9242e-06 0
4.64412e-05 2.65816e-05 0
-1.58671e-05 5.20768e-05 0
-0.000112845 7.79322e-05 0
-0.000245158 0.000102671 0
-0.000410906 0.000126352 0
-0.000608193 0.000149036 0
-0.00083429 0.000169444 0
-0.00108647 0.000186298 0
-0.00136085 0.000201189 0
-0.00165355 0.000215709 0
-0.00196414 0.0002273 0
-0.00229223 0.000233406 0
0 0 0
2.63533e-05 -5.25969e-05 0
5.44816e-05 -5.40816e-05 0
6.25833e-05 -1.92738e-05 0
2.88569e-05 3.70066e-05 0
-5.60002e-05 0.000106838 0
-0.00020129 0.000182299 0
-0.00040836 0.000259718 0
-0.000678555 0.000335421 0
-0.00100879 0.000407222 0
-0.00139598 0.000472933 0
-0.00183553 0.000532641 0
-0.00232282 0.000586432 0
-0.00285369 0.000633869 0
-0.00342394 0.000674516 0
-0.00402799 0.000713071 0
-0.00466028 0.000754233 0
0 0 0
1.64017e-05 -7.52655e-05 0
2.06589e-05 -6.24842e-05 0
-1.1281e-05 1.29944e-05 0
-0.00010347 0.000125821 0
-0.000266504 0.000262746 0
-0.000510978 0.000410523 0
-0.000838835 0.000562443 0
-0.00125202 0.0007118 0
-0.0017474 0.000854076 0
-0.00232185 0.000984756 0
-0.00296845 0.0011038 0
-0.00368027 0.00121117 0
-0.00445251 0.00130653 0
-0.00528037 0.00138957 0
-0.00615486 0.00146594 0
-0.007067 0.00154134 0
0 0 0
-1.70023e-06 -7.63841e-05 0
-3.39331e-05 -2.9873e-05 0
-0.000121211 0.000104809 0
-0.000288047 0.000292939 0
-0.000544252 0.000516282 0
-0.000899639 0.000756601 0
-0.00135656 0.00100319 0
-0.00191737 0.00124535 0
-0.00258048 0.00147838 0
-0.0033443 0.00169757 0
-0.00419782 0.00189713 0
-0.00513004 0.00207127 0
-0.00613134 0.00222768 0
-0.00719206 0.00237401 0
-0.00830807 0.00249455 0
-0.0094752 0.00257357 0
0 0 0
-2.46955e-05 -5.00363e-05 0
-0.00010199 5.28532e-05 0
-0.000255282 0.00026652 0
-0.000507973 0.000548817 0
-0.000868128 0.000876668 0
-0.00134381 0.001227 0
-0.00193725 0.00158571 0
-0.00265069 0.0019387 0
-0.00348201 0.0022799 0
-0.00442909 0.00260323 0
-0.00548163 0.00289767 0
-0.0066293 0.00315217 0
-0.00785515 0.00337833 0
-0.0091422 0.00358773 0
-0.0104948 0.00376722 0
-0.0119175 0.0039037 0
0 0 0
-4.93274e-05 9.69432e-06 0
-0.000176206 0.000194796 0
-0.00040157 0.000508476 0
-0.000746353 0.000903907 0
-0.00121702 0.00135313 0
-0.00182003 0.00182818 0
-0.00255663 0.00231373 0
-0.00342805 0.00279446 0
-0.00442595 0.0032584 0
-0.00554202 0.00369362 0
-0.0067779 0.00409047 0
-0.00813523 0.0044393 0
-0.00958896 0.00473954 0
-0.011114 0.00499057 0
-0.0127224 0.00525227 0
-0.0144264 0.0055845 0
0 0 0
-7.47398e-05 0.000103646 0
-0.000253434 0.000398543 0
-0.000554235 0.000834687 0
-0.000995297 0.00136208 0
-0.00158104 0.00194968 0
-0.00231587 0.00256646 0
-0.00319832 0.0031928 0
-0.00422693 0.00380905 0
-0.00539234 0.00440405 0
-0.00668521 0.00496665 0
-0.0081109 0.00548321 0
-0.00967478 0.00594009 0
-0.0113503 0.00632701 0
-0.0131108 0.00663369 0
-0.0149675 0.00697886 0
-0.0169315 0.00748121 0
0 0 0
-0.000100077 0.000232656 0
-0.000330523 0.000666681 0
-0.000707438 0.00124916 0
-0.00124692 0.00192719 0
-0.00195029 0.00267033 0
-0.00281887 0.00344817 0
-0.00384595 0.00422844 0
-0.00502484 0.00497889 0
-0.00636122 0.005707 0
-0.0078608 0.00642026 0
-0.00950492 0.0070836 0
-0.0112749 0.00766196 0
-0.0131566 0.00815646 0
-0.0151359 0.00856821 0
-0.0172065 0.00897612 0
-0.0193625 0.00945911 0
0 0 0
-0.000125015 0.000396326 0
-0.000406087 0.000998093 0
-0.000858718 0.00175135 0
-0.00149841 0.00260214 0
-0.00232111 0.00351821 0
-0.00332279 0.00446733 0
-0.00449565 0.00541306 0
-0.00583188 0.00631897 0
-0.00734672 0.00720087 0
-0.00905536 0.00807456 0
-0.0109168 0.00889086 0
-0.01289 0.00960061 0
-0.0149702 0.0102147 0
-0.0171526 0.0107441 0
-0.0194172 0.0112051 0
-0.0217439 0.0116142 0
0 0 0
-0.000149229 0.000594255 0
-0.000478737 0.00139166 0
-0.00100561 0.00234069 0
-0.00174695 0.0033898 0
-0.00268984 0.00449642 0
-0.00382139 0.00561797 0
-0.00514352 0.00673906 0
-0.0066582 0.00784428 0
-0.00836298 0.00891928 0
-0.0102554 0.00994969 0
-0.0123034 0.0109043 0
-0.0144746 0.0117517 0
-0.0167535 0.0124886 0
-0.0191245 0.0131112 0
-0.0215771 0.0136269 0
-0.0241005 0.0140426 0
0 0 0
-0.000172352 0.000824533 0
-0.00054897 0.00184617 0
-0.00114821 0.00301618 0
-0.00198844 0.00428584 0
-0.00304998 0.00560202 0
-0.00431315 0.00691157 0
-0.00578773 0.0082231 0
-0.0074835 0.00954523 0
-0.0093762 0.0108281 0
-0.0114416 0.0120218 0
-0.0136633 0.0131156 0
-0.016025 0.0140985 0
-0.0184996 0.0149536 0
-0.0210603 0.0156638 0
-0.0237061 0.0162455 0
-0.0264362 0.0167149 0
0 0 0
-0.000194015 0.00108525 0
-0.000617284 0.00236038 0
-0.0012866 0.0037768 0
-0.00221877 0.0052859 0
-0.00339502 0.00683204 0
-0.00479658 0.0083596 0
-0.00642641 0.00988189 0
-0.0082875 0.0114123 0
-0.0103526 0.0128932 0
-0.0125944 0.0142671 0
-0.0149953 0.0155167 0
-0.0175375 0.0166243 0
-0.0202018 0.0175855 0
-0.0229686 0.0183959 0
-0.0258243 0.0190648 0
-0.0287551 0.0196017 0
0 0 0
-0.000214391 0.00137634 0
-0.000684295 0.00293235 0
-0.00142268 0.00461903 0
-0.00244251 0.00638737 0
-0.00372883 0.00818326 0
-0.0052667 0.00995257 0
-0.0070489 0.0117042 0
-0.00906822 0.013447 0
-0.0112989 0.015125 0
-0.0137152 0.0166822 0
-0.0162949 0.0180927 0
-0.0190159 0.0193311 0
-0.0218682 0.0204037 0
-0.024842 0.0213169 0
-0.0279089 0.0220734 0
-0.0310404 0.0226757 0
0 0 0
-0.000233657 0.00169776 0
-0.000750622 0.00356013 0
-0.00155833 0.00553936 0
-0.00266422 0.00758768 0
-0.0040553 0.00965244 0
-0.00571857 0.011681 0
-0.00764453 0.0136788 0
-0.00982367 0.0156512 0
-0.012222 0.0175342 0
-0.0148055 0.0192635 0
-0.0175581 0.0208291 0
-0.0204638 0.0222211 0
-0.0235072 0.0234275 0
-0.026673 0.0244363 0
-0.029937 0.0252595 0
-0.0332753 0.0259092 0
0 0 0
-0.000253404 0.00204755 0
-0.000816911 0.00424586 0
-0.00169359 0.00654207 0
-0.00288652 0.00888329 0
-0.00438649 0.0112346 0
-0.0061843 0.0135609 0
-0.00825803 0.015838 0
-0.0105858 0.0180412 0
-0.0131377 0.020119 0
-0.0158837 0.0220195 0
-0.0188107 0.0237453 0
-0.0219054 0.0252988 0
-0.0251428 0.0266486 0
-0.0284975 0.0277633 0
-0.0319581 0.0286634 0
-0.0355129 0.0293698 0
0 0 0
-0.000275225 0.00242377 0
-0.00088381 0.00499171 0
-0.0018285 0.00763147 0
-0.00311202 0.0102707 0
-0.00473449 0.0129247 0
-0.00669601 0.0156084 0
-0.00893418 0.018214 0
-0.0113866 0.0206333 0
-0.0140618 0.0228777 0
-0.0169682 0.0249587 0
-0.0200784 0.0268609 0
-0.0233649 0.0285687 0
-0.026799 0.0300586 0
-0.0303519 0.0313069 0
-0.0340216 0.0323252 0
-0.0378059 0.0331251 0
0 0 0
0 0 0
0 0 0
0 0 0
0 0 0
0 0 0
0 0 0
0 0 0
0 0 0
0 0 0
0 0 0
0 0 0
0 0 0
0 0 0
0 0 0
0 0 0
0 0 0
0 0 0
0 0 0
0 0 0
0 0 0
0 0 0
0 0 0
0 0 0
0 0 0
0 0 0
0 0 0
0 0 0
0 0 0
0 0 0
0 0 0
0 0 0
0 0 0
0 0 0
0 0 0
0 0 0
0 0 0
0 0 0
0 0 0
0 0 0
0 0 0
0 0 0
0 0 0
0 0 0
0 0 0
0 0 0
0 0 0
0 0 0
0 0 0
-0.00229223 0.000233406 0
-0.00263886 0.000248095 0
-0.00298915 0.000253193 0
-0.00334525 0.000254324 0
-0.00370933 0.000257115 0
-0.00407538 0.000258638 0
-0.0044374 0.000255968 0
-0.00479461 0.000250987 0
-0.00514624 0.000245578 0
-0.00548906 0.000238842 0
-0.0058198 0.00022988 0
-0.00613691 0.000219304 0
-0.00643883 0.000207725 0
-0.00672356 0.000194982 0
-0.00698906 0.000180916 0
-0.00723399 0.000165755 0
-0.00745697 0.000149727 0
-0.00765674 0.000132878 0
-0.00783206 0.000115256 0
-0.00798207 9.69946e-05 0
-0.0081059 7.82254e-05 0
-0.00820295 5.90412e-05 0
-0.0082726 3.95347e-05 0
-0.00831456 1.98172e-05 0
-0.00832855 -1.88406e-16 0
-0.00831456 -1.98172e-05 0
-0.0082726 -3.95347e-05 0
-0.00820295 -5.90412e-05 0
-0.0081059 -7.82254e-05 0
-0.00798207 -9.69946e-05 0
-0.00783206 -0.000115256 0
-0.00765674 -0.000132878 0
-0.00745697 -0.000149727 0
-0.00723399 -0.000165755 0
-0.00698906 -0.000180916 0
-0.00672356 -0.000194982 0
-0.00643883 -0.000207725 0
-0.00613691 -0.000219304 0
-0.0058198 -0.00022988 0
-0.00548906 -0.000238842 0
-0.00514624 -0.000245578 0
-0.00479461 -0.000250987 0
-0.0044374 -0.000255968 0
-0.00407538 -0.000258638 0
-0.00370933 -0.000257115 0
-0.00334525 -0.000254324 0
-0.00298915 -0.000253193 0
-0.00263886 -0.000248095 0
-0.00229223 -0.000233406 0
-0.00466028 0.000754233 0
-0.00530942 0.000769917 0
-0.00598435 0.000789399 0
-0.00667426 0.000805478 0
-0.00736832 0.000810948 0
-0.00806346 0.000808829 0
-0.0087566 0.000802138 0
-0.00944193 0.000790238 0
-0.0101136 0.000772489 0
-0.0107677 0.000749455 0
-0.0114002 0.000721695 0
-0.012007 0.000689449 0
-0.0125842 0.000652956 0
-0.0131283 0.000612511 0
-0.0136361 0.000568412 0
-0.0141046 0.000521003 0
-0.014531 0.000470627 0
-0.014913 0.000417604 0
-0.0152484 0.000362248 0
-0.0155354 0.000304903 0
-0.0157723 0.000245908 0
-0.0159579 0.00018559 0
-0.0160911 0.000124277 0
-0.0161714 6.23025e-05 0
-0.0161982 -5.45151e-16 0
-0.0161714 -6.23025e-05 0
-0.0160911 -0.000124277 0
-0.0159579 -0.00018559 0
-0.0157723 -0.000245908 0
-0.0155354 -0.000304903 0
-0.0152484 -0.000362248 0
-0.014913 -0.000417604 0
-0.014531 -0.000470627 0
-0.0141046 -0.000521003 0
-0.0136361 -0.000568412 0
-0.0131283 -0.000612511 0
-0.0125842 -0.000652956 0
-0.012007 -0.000689449 0
-0.0114002 -0.000721695 0
-0.0107677 -0.000749455 0
-0.0101136 -0.000772489 0
-0.00944193 -0.000790238 0
-0.0087566 -0.000802138 0
-0.00806346 -0.000808829 0
-0.00736832 -0.000810948 0
-0.00667426 -0.000805478 0
-0.00598435 -0.000789399 0
-0.00530942 -0.000769917 0
-0.00466028 -0.000754233 0
-0.007067 0.00154134 0
-0.00800268 0.00157984 0
-0.00897714 0.00161938 0
-0.00997208 0.00164932 0
-0.0109692 0.00165903 0
-0.0119668 0.0016543 0
-0.0129631 0.00164092 0
-0.0139484 0.00161689 0
-0.014913 0.00158022 0
-0.0158518 0.0015327 0
-0.0167602 0.0014761 0
-0.017632 0.00141044 0
-0.0184608 0.00133575 0
-0.0192422 0.0012529 0
-0.0199714 0.00116276 0
-0.0206443 0.00106589 0
-0.0212568 0.000962846 0
-0.0218055 0.000854358 0
-0.0222872 0.000741135 0
-0.0226994 0.000623842 0
-0.0230396 0.000503146 0
-0.0233063 0.000379732 0
-0.0234977 0.000254285 0
-0.023613 0.000127482 0
-0.0236515 -1.11762e-15 0
-0.023613 -0.000127482 0
-0.0234977 -0.000254285 0
-0.0233063 -0.000379732 0
-0.0230396 -0.000503146 0
-0.0226994 -0.000623842 0
-0.0222872 -0.000741135 0
-0.0218055 -0.000854358 0
-0.0212568 -0.000962846 0
-0.0206443 -0.00106589 0
-0.0199714 -0.00116276 0
-0.0192422 -0.0012529 0
-0.0184608 -0.00133575 0
-0.017632 -0.00141044 0
-0.0167602 -0.0014761 0
-0.0158518 -0.0015327 0
-0.014913 -0.00158022 0
-0.0139484 -0.00161689 0
-0.0129631 -0.00164092 0
-0.0119668 -0.0016543 0
-0.0109692 -0.00165903 0
-0.00997208 -0.00164932 0
-0.00897714 -0.00161938 0
-0.00800268 -0.00157984 0
-0.007067 -0.00154134 0
-0.0094752 0.00257357 0
-0.0107097 0.00269226 0
-0.011959 0.0027539 0
-0.0132238 0.00278171 0
-0.0145042 0.00279889 0
-0.015788 0.00279878 0
-0.0170625 0.00277471 0
-0.0183207 0.00273007 0
-0.019555 0.00266828 0
-0.0207572 0.00258946 0
-0.021919 0.00249374 0
-0.0230334 0.00238227 0
-0.0240934 0.00225617 0
-0.0250929 0.00211648 0
-0.0260254 0.00196423 0
-0.0268858 0.00180055 0
-0.0276689 0.00162653 0
-0.0283705 0.00144332 0
-0.0289864 0.00125207 0
-0.0295135 0.00105393 0
-0.0299486 0.000850039 0
-0.0302895 0.00064155 0
-0.0305343 0.000429615 0
-0.0306817 0.000215381 0
-0.0307309 -1.95322e-15 0
-0.0306817 -0.000215381 0
-0.0305343 -0.000429615 0
-0.0302895 -0.00064155 0
-0.0299486 -0.000850039 0
-0.0295135 -0.00105393 0
-0.0289864 -0.00125207 0
-0.0283705 -0.00144332 0
-0.0276689 -0.00162653 0
-0.0268858 -0.00180055 0
-0.0260254 -0.00196423 0
-0.0250929 -0.00211648 0
-0.0240934 -0.00225617 0
-0.0230334 -0.00238227 0
-0.021919 -0.00249374 0
-0.0207572 -0.00258946 0
-0.019555 -0.00266828 0
-0.0183207 -0.00273007 0
-0.0170625 -0.00277471 0
-0.015788 -0.00279878 0
-0.0145042 -0.00279889 0
-0.0132238 -0.00278171 0
-0.011959 -0.0027539 0
-0.0107097 -0.00269226 0
-0.0094752 -0.00257357 0
-0.0119175 0.0039037 0
-0.0134219 0.00406347 0
-0.0149269 0.00414798 0
-0.0164452 0.0041877 0
-0.0179896 0.00421312 0
-0.019539 0.00421263 0
-0.0210719 0.00417462 0
-0.0225832 0.00410579 0
-0.0240677 0.00401283 0
-0.0255139 0.00389472 0
-0.0269103 0.00375044 0
-0.0282492 0.00358231 0
-0.029523 0.00339263 0
-0.030724 0.00318266 0
-0.0318442 0.00295365 0
-0.0328778 0.00270742 0
-0.0338185 0.00244574 0
-0.0346612 0.00217029 0
-0.035401 0.00188271 0
-0.036034 0.00158476 0
-0.0365565 0.00127818 0
-0.036966 0.00096469 0
-0.03726 0.000646007 0
-0.0374371 0.000323865 0
-0.0374961 -2.97318e-15 0
-0.0374371 -0.000323865 0
-0.03726 -0.000646007 0
-0.036966 -0.00096469 0
-0.0365565 -0.00127818 0
-0.036034 -0.00158476 0
-0.035401 -0.00188271 0
-0.0346612 -0.00217029 0
-0.0338185 -0.00244574 0
-0.0328778 -0.00270742 0
-0.0318442 -0.00295365 0
-0.030724 -0.00318266 0
-0.029523 -0.00339263 0
-0.0282492 -0.00358231 0
-0.0269103 -0.00375044 0
-0.0255139 -0.00389472 0
-0.0240677 -0.00401283 0
-0.0225832 -0.00410579 0
-0.0210719 -0.00417462 0
-0.019539 -0.00421263 0
-0.0179896 -0.00421312 0
-0.0164452 -0.0041877 0
-0.0149269 -0.00414798 0
-0.0134219 -0.00406347 0
-0.0119175 -0.0039037 0
-0.0144264 0.0055845 0
-0.0161311 0.00564981 0
-0.0178774 0.00575664 0
-0.0196521 0.00585234 0
-0.0214417 0.00588427 0
-0.0232318 0.00586617 0
-0.0250082 0.00581177 0
-0.0267606 0.00572007 0
-0.028479 0.00559007 0
-0.0301519 0.00542348 0
-0.0317679 0.005222 0
-0.0333173 0.00498793 0
-0.0347905 0.00472356 0
-0.0361791 0.00443087 0
-0.0374744 0.00411184 0
-0.0386693 0.00376892 0
-0.0397566 0.00340456 0
-0.0407307 0.00302105 0
-0.0415856 0.0026207 0
-0.0423172 0.00220592 0
-0.042921 0.00177916 0
-0.0433942 0.00134279 0
-0.0437339 0.000899201 0
-0.0439385 0.000450798 0
-0.0440067 -4.09876e-15 0
-0.0439385 -0.000450798 0
-0.0437339 -0.000899201 0
-0.0433942 -0.00134279 0
-0.042921 -0.00177916 0
-0.0423172 -0.00220592 0
-0.0415856 -0.0026207 0
-0.0407307 -0.00302105 0
-0.0397566 -0.00340456 0
-0.0386693 -0.00376892 0
-0.0374744 -0.00411184 0
-0.0361791 -0.00443087 0
-0.0347905 -0.00472356 0
-0.0333173 -0.00498793 0
-0.0317679 -0.005222 0
-0.0301519 -0.00542348 0
-0.028479 -0.00559007 0
-0.0267606 -0.00572007 0
-0.0250082 -0.00581177 0
-0.0232318 -0.00586617 0
-0.0214417 -0.00588427 0
-0.0196521 -0.00585234 0
-0.0178774 -0.00575664 0
-0.0161311 -0.00564981 0
-0.0144264 -0.0055845 0
-0.0169315 0.00748121 0
-0.0188224 0.00747291 0
-0.0208008 0.00760724 0
-0.0228221 0.00775688 0
-0.0248422 0.00779451 0
-0.0268574 0.00775783 0
-0.028864 0.00768452 0
-0.0308449 0.00756571 0
-0.0327833 0.00739255 0
-0.0346686 0.00716992 0
-0.0364906 0.00690269 0
-0.0382374 0.00659299 0
-0.0398972 0.00624293 0
-0.0414611 0.00585545 0
-0.0429199 0.00543346 0
-0.0442655 0.00498008 0
-0.0454896 0.0044984 0
-0.046586 0.0039915 0
-0.0475483 0.00346243 0
-0.0483717 0.00291437 0
-0.0490512 0.00235051 0
-0.0495836 0.00177398 0
-0.0499658 0.00118793 0
-0.0501961 0.000595545 0
-0.0502729 -5.25036e-15 0
-0.0501961 -0.000595545 0
-0.0499658 -0.00118793 0
-0.0495836 -0.00177398 0
-0.0490512 -0.00235051 0
-0.0483717 -0.00291437 0
-0.0475483 -0.00346243 0
-0.046586 -0.0039915 0
-0.0454896 -0.0044984 0
-0.0442655 -0.00498008 0
-0.0429199 -0.00543346 0
-0.0414611 -0.00585545 0
-0.0398972 -0.00624293 0
-0.0382374 -0.00659299 0
-0.0364906 -0.00690269 0
-0.0346686 -0.00716992 0
-0.0327833 -0.00739255 0
-0.0308449 -0.00756571 0
-0.028864 -0.00768452 0
-0.0268574 -0.00775783 0
-0.0248422 -0.00779451 0
-0.0228221 -0.00775688 0
-0.0208008 -0.00760724 0
-0.0188224 -0.00747291 0
-0.0169315 -0.00748121 0
-0.0193625 0.00945911 0
-0.0214814 0.00955445 0
-0.0236869 0.00972715 0
-0.0259328 0.00988254 0
-0.0281731 0.00992598 0
-0.0304064 0.00988601 0
-0.0326317 0.0097912 0
-0.034828 0.00963548 0
-0.0369746 0.0094128 0
-0.0390611 0.00912821 0
-0.0410771 0.00878678 0
-0.0430094 0.00839133 0
-0.0448445 0.00794472 0
-0.0465729 0.00745074 0
-0.0481849 0.00691318 0
-0.0496715 0.00633588 0
-0.0510236 0.00572268 0
-0.0522343 0.00507751 0
-0.0532969 0.0044043 0
-0.054206 0.00370704 0
-0.0549561 0.00298973 0
-0.0555439 0.00225636 0
-0.0559658 0.00151093 0
-0.05622 0.000757474 0
-0.0563047 -6.34839e-15 0
-0.05622 -0.000757474 0
-0.0559658 -0.00151093 0
-0.0555439 -0.00225636 0
-0.0549561 -0.00298973 0
-0.054206 -0.00370704 0
-0.0532969 -0.0044043 0
-0.0522343 -0.00507751 0
-0.0510236 -0.00572268 0
-0.0496715 -0.00633588 0
-0.0481849 -0.00691318 0
-0.0465729 -0.00745074 0
-0.0448445 -0.00794472 0
-0.0430094 -0.00839133 0
-0.0410771 -0.00878678 0
-0.0390611 -0.00912821 0
-0.0369746 -0.0094128 0
-0.034828 -0.00963548 0
-0.0326317 -0.0097912 0
-0.0304064 -0.00988601 0
-0.0281731 -0.00992598 0
-0.0259328 -0.00988254 0
-0.0236869 -0.00972715 0
-0.0214814 -0.00955445 0
-0.0193625 -0.00945911 0
-0.0217439 0.0116142 0
-0.0241035 0.0118634 0
-0.0265282 0.0120768 0
-0.0289843 0.012223 0
-0.031438 0.0122712 0
-0.0338845 0.0122306 0
-0.0363188 0.0121107 0
-0.0387193 0.0119116 0
-0.0410645 0.0116331 0
-0.0433427 0.0112797 0
-0.0455426 0.0108558 0
-0.0476501 0.0103653 0
-0.0496509 0.00981208 0
-0.0515346 0.00920073 0
-0.0532909 0.00853598 0
-0.0549101 0.00782244 0
-0.0563825 0.00706478 0
-0.0577007 0.00626784 0
-0.0588574 0.00543651 0
-0.0598469 0.00457565 0
-0.0606633 0.00369012 0
-0.0613029 0.00278486 0
-0.0617619 0.0018648 0
-0.0620385 0.000934874 0
-0.0621307 -7.55197e-15 0
-0.0620385 -0.000934874 0
-0.0617619 -0.0018648 0
-0.0613029 -0.00278486 0
-0.0606633 -0.00369012 0
-0.0598469 -0.00457565 0
-0.0588574 -0.00543651 0
-0.0577007 -0.00626784 0
-0.0563825 -0.00706478 0
-0.0549101 -0.00782244 0
-0.0532909 -0.00853598 0
-0.0515346 -0.00920073 0
-0.0496509 -0.00981208 0
-0.0476501 -0.0103653 0
-0.0455426 -0.0108558 0
-0.0433427 -0.0112797 0
-0.0410645 -0.0116331 0
-0.0387193 -0.0119116 0
-0.0363188 -0.0121107 0
-0.0338845 -0.0122306 0
-0.031438 -0.0122712 0
-0.0289843 -0.012223 0
-0.0265282 -0.0120768 0
-0.0241035 -0.0118634 0
-0.0217439 -0.0116142 0
-0.0241005 0.0140426 0
-0.026684 0.014369 0
-0.0293169 0.0146165 0
-0.0319766 0.0147721 0
-0.0346408 0.0148226 0
-0.037297 0.0147715 0
-0.0399327 0.0146221 0
-0.0425283 0.0143762 0
-0.0450643 0.0140357 0
-0.0475269 0.0136057 0
-0.0499023 0.0130914 0
-0.0521763 0.0124974 0
-0.0543347 0.0118281 0
-0.0563662 0.0110894 0
-0.0582593 0.0102868 0
-0.060004 0.00942586 0
-0.0615902 0.00851206 0
-0.0630101 0.00755124 0
-0.0642557 0.00654924 0
-0.065321 0.00551188 0
-0.0661999 0.00444497 0
-0.0668885 0.00335442 0
-0.0673826 0.00224614 0
-0.0676803 0.00112604 0
-0.0677795 -9.02033e-15 0
-0.0676803 -0.00112604 0
-0.0673826 -0.00224614 0
-0.0668885 -0.00335442 0
-0.0661999 -0.00444497 0
-0.065321 -0.00551188 0
-0.0642557 -0.00654924 0
-0.0630101 -0.00755124 0
-0.0615902 -0.00851206 0
-0.060004 -0.00942586 0
-0.0582593 -0.0102868 0
-0.0563662 -0.0110894 0
-0.0543347 -0.0118281 0
-0.0521763 -0.0124974 0
-0.0499023 -0.0130914 0
-0.0475269 -0.0136057 0
-0.0450643 -0.0140357 0
-0.0425283 -0.0143762 0
-0.0399327 -0.0146221 0
-0.037297 -0.0147715 0
-0.0346408 -0.0148226 0
-0.0319766 -0.0147721 0
-0.0293169 -0.0146165 0
-0.026684 -0.014369 0
-0.0241005 -0.0140426 0
-0.0264362 0.0167149 0
-0.0292292 0.0170839 0
-0.0320636 0.017364 0
-0.0349239 0.017538 0
-0.0377946 0.0175888 0
-0.0406556 0.0175201 0
-0.0434868 0.0173356 0
-0.0462712 0.0170375 0
-0.0489914 0.0166282 0
-0.0516315 0.0161136 0
-0.0541753 0.0155003 0
-0.0566089 0.0147934 0
-0.0589182 0.0139983 0
-0.0610908 0.0131216 0
-0.0631144 0.0121701 0
-0.0649787 0.01115 0
-0.0666733 0.0100679 0
-0.0681899 0.00893064 0
-0.06952 0.007745 0
-0.0706573 0.00651782 0
-0.0715956 0.00525593 0
-0.0723305 0.00396626 0
-0.0728578 0.00265576 0
-0.0731755 0.00133136 0
-0.0732814 -1.04481e-14 0
-0.0731755 -0.00133136 0
-0.0728578 -0.00265576 0
-0.0723305 -0.00396626 0
-0.0715956 -0.00525593 0
-0.0706573 -0.00651782 0
-0.06952 -0.007745 0
-0.0681899 -0.00893064 0
-0.0666733 -0.0100679 0
-0.0649787 -0.01115 0
-0.0631144 -0.0121701 0
-0.0610908 -0.0131216 0
-0.0589182 -0.0139983 0
-0.0566089 -0.0147934 0
-0.0541753 -0.0155003 0
-0.0516315 -0.0161136 0
-0.0489914 -0.0166282 0
-0.0462712 -0.0170375 0
-0.0434868 -0.0173356 0
-0.0406556 -0.0175201 0