<?xml version="1.0"?>
<VTKFile type="UnstructuredGrid">
  <UnstructuredGrid>
  <Piece NumberOfPoints="3321"  NumberOfCells="1600">
    <Points>
      <DataArray type="Float64" NumberOfComponents="3" format="ascii">
0 0 0.1
1 0 0.1
1 0.5 0.1
0 0.5 0.1
0.025 0 0.1
0.05 0 0.1
0.075 0 0.1
0.1 0 0.1
0.125 0 0.1
0.15 0 0.1
0.175 0 0.1
0.2 0 0.1
0.225 0 0.1
0.25 0 0.1
0.275 0 0.1
0.3 0 0.1
0.325 0 0.1
0.35 0 0.1
0.375 0 0.1
0.4 0 0.1
0.425 0 0.1
0.45 0 0.1
0.475 0 0.1
0.5 0 0.1
0.525 0 0.1
0.55 0 0.1
0.575 0 0.1
0.6 0 0.1
0.625 0 0.1
0.65 0 0.1
0.675 0 0.1
0.7 0 0.1
0.725 0 0.1
0.75 0 0.1
0.775 0 0.1
0.8 0 0.1
0.825 0 0.1
0.85 0 0.1
0.875 0 0.1
0.9 0 0.1
0.925 0 0.1
0.95 0 0.1
0.975 0 0.1
0.0125 0 0.1
0.0375 0 0.1
0.0625 0 0.1
0.0875 0 0.1
0.1125 0 0.1
0.1375 0 0.1
0.1625 0 0.1
0.1875 0 0.1
0.2125 0 0.1
0.2375 0 0.1
0.2625 0 0.1
0.2875 0 0.1
0.3125 0 0.1
0.3375 0 0.1
0.3625 0 0.1
0.3875 0 0.1
0.4125 0 0.1
0.4375 0 0.1
0.4625 0 0.1
0.4875 0 0.1
0.5125 0 0.1
0.5375 0 0.1
0.5625 0 0.1
0.5875 0 0.1
0.6125 0 0.1
0.6375 0 0.1
0.6625 0 0.1
0.6875 0 0.1
0.7125 0 0.1
0.7375 0 0.1
0.7625 0 0.1
0.7875 0 0.1
0.8125 0 0.1
0.8375 0 0.1
0.8625 0 0.1
0.8875 0 0.1
0.9125 0 0.1
0.9375 0 0.1
0.9625 0 0.1
0.9875 0 0.1
1 0.025 0.1
1 0.05 0.1
1 0.075 0.1
1 0.1 0.1
1 0.125 0.1
1 0.15 0.1
1 0.175 0.1
1 0.2 0.1
1 0.225 0.1
1 0.25 0.1
1 0.275 0.1
1 0.3 0.1
1 0.325 0.1
1 0.35 0.1
1 0.375 0.1
1 0.4 0.1
1 0.425 0.1
1 0.45 0.1
1 0.475 0.1
1 0.0125 0.1
1 0.0375 0.1
1 0.0625 0.1
1 0.0875 0.1
1 0.1125 0.1
1 0.1375 0.1
1 0.1625 0.1
1 0.1875 0.1
1 0.2125 0.1
1 0.2375 0.1
1 0.2625 0.1
1 0.2875 0.1
1 0.3125 0.1
1 0.3375 0.1
1 0.3625 0.1
1 0.3875 0.1
1 0.4125 0.1
1 0.4375 0.1
1 0.4625 0.1
1 0.4875 0.1
0.975 0.5 0.1
0.95 0.5 0.1
0.925 0.5 0.1
0.9 0.5 0.1
0.875 0.5 0.1
0.85 0.5 0.1
0.825 0.5 0.1
0.8 0.5 0.1
0.775 0.5 0.1
0.75 0.5 0.1
0.725 0.5 0.1
0.7 0.5 0.1
0.675 0.5 0.1
0.65 0.5 0.1
0.625 0.5 0.1
0.6 0.5 0.1
0.575 0.5 0.1
0.55 0.5 0.1
0.525 0.5 0.1
0.5 0.5 0.1
0.475 0.5 0.1
0.45 0.5 0.1
0.425 0.5 0.1
0.4 0.5 0.1
0.375 0.5 0.1
0.35 0.5 0.1
0.325 0.5 0.1
0.3 0.5 0.1
0.275 0.5 0.1
0.25 0.5 0.1
0.225 0.5 0.1
0.2 0.5 0.1
0.175 0.5 0.1
0.15 0.5 0.1
0.125 0.5 0.1
0.1 0.5 0.1
0.075 0.5 0.1
0.05 0.5 0.1
0.025 0.5 0.1
0.9875 0.5 0.1
0.9625 0.5 0.1
0.9375 0.5 0.1
0.9125 0.5 0.1
0.8875 0.5 0.1
0.8625 0.5 0.1
0.8375 0.5 0.1
0.8125 0.5 0.1
0.7875 0.5 0.1
0.7625 0.5 0.1
0.7375 0.5 0.1
0.7125 0.5 0.1
0.6875 0.5 0.1
0.6625 0.5 0.1
0.6375 0.5 0.1
0.6125 0.5 0.1
0.5875 0.5 0.1
0.5625 0.5 0.1
0.5375 0.5 0.1
0.5125 0.5 0.1
0.4875 0.5 0.1
0.4625 0.5 0.1
0.4375 0.5 0.1
0.4125 0.5 0.1
0.3875 0.5 0.1
0.3625 0.5 0.1
0.3375 0.5 0.1
0.3125 0.5 0.1
0.2875 0.5 0.1
0.2625 0.5 0.1
0.2375 0.5 0.1
0.2125 0.5 0.1
0.1875 0.5 0.1
0.1625 0.5 0.1
0.1375 0.5 0.1
0.1125 0.5 0.1
0.0875 0.5 0.1
0.0625 0.5 0.1
0.0375 0.5 0.1
0.0125 0.5 0.1
0 0.475 0.1
0 0.45 0.1
0 0.425 0.1
0 0.4 0.1
0 0.375 0.1
0 0.35 0.1
0 0.325 0.1
0 0.3 0.1
0 0.275 0.1
0 0.25 0.1
0 0.225 0.1
0 0.2 0.1
0 0.175 0.1
0 0.15 0.1
0 0.125 0.1
0 0.1 0.1
0 0.075 0.1
0 0.05 0.1
0 0.025 0.1
0 0.4875 0.1
0 0.4625 0.1
0 0.4375 0.1
0 0.4125 0.1
0 0.3875 0.1
0 0.3625 0.1
0 0.3375 0.1
0 0.3125 0.1
0 0.2875 0.1
0 0.2625 0.1
0 0.2375 0.1
0 0.2125 0.1
0 0.1875 0.1
0 0.1625 0.1
0 0.1375 0.1
0 0.1125 0.1
0 0.0875 0.1
0 0.0625 0.1
0 0.0375 0.1
0 0.0125 0.1
0.975 0.475 0.1
0.975 0.45 0.1
0.975 0.425 0.1
0.975 0.4 0.1
0.975 0.375 0.1
0.975 0.35 0.1
0.975 0.325 0.1
0.975 0.3 0.1
0.975 0.275 0.1
0.975 0.25 0.1
0.975 0.225 0.1
0.975 0.2 0.1
0.975 0.175 0.1
0.975 0.15 0.1
0.975 0.125 0.1
0.975 0.1 0.1
0.975 0.075 0.1
0.975 0.05 0.1
0.975 0.025 0.1
0.95 0.475 0.1
0.95 0.45 0.1
0.95 0.425 0.1
0.95 0.4 0.1
0.95 0.375 0.1
0.95 0.35 0.1
0.95 0.325 0.1
0.95 0.3 0.1
0.95 0.275 0.1
0.95 0.25 0.1
0.95 0.225 0.1
0.95 0.2 0.1
0.95 0.175 0.1
0.95 0.15 0.1
0.95 0.125 0.1
0.95 0.1 0.1
0.95 0.075 0.1
0.95 0.05 0.1
0.95 0.025 0.1
0.925 0.475 0.1
0.925 0.45 0.1
0.925 0.425 0.1
0.925 0.4 0.1
0.925 0.375 0.1
0.925 0.35 0.1
0.925 0.325 0.1
0.925 0.3 0.1
0.925 0.275 0.1
0.925 0.25 0.1
0.925 0.225 0.1
0.925 0.2 0.1
0.925 0.175 0.1
0.925 0.15 0.1
0.925 0.125 0.1
0.925 0.1 0.1
0.925 0.075 0.1
0.925 0.05 0.1
0.925 0.025 0.1
0.9 0.475 0.1
0.9 0.45 0.1
0.9 0.425 0.1
0.9 0.4 0.1
0.9 0.375 0.1
0.9 0.35 0.1
0.9 0.325 0.1
0.9 0.3 0.1
0.9 0.275 0.1
0.9 0.25 0.1
0.9 0.225 0.1
0.9 0.2 0.1
0.9 0.175 0.1
0.9 0.15 0.1
0.9 0.125 0.1
0.9 0.1 0.1
0.9 0.075 0.1
0.9 0.05 0.1
0.9 0.025 0.1
0.875 0.475 0.1
0.875 0.45 0.1
0.875 0.425 0.1
0.875 0.4 0.1
0.875 0.375 0.1
0.875 0.35 0.1
0.875 0.325 0.1
0.875 0.3 0.1
0.875 0.275 0.1
0.875 0.25 0.1
0.875 0.225 0.1
0.875 0.2 0.1
0.875 0.175 0.1
0.875 0.15 0.1
0.875 0.125 0.1
0.875 0.1 0.1
0.875 0.075 0.1
0.875 0.05 0.1
0.875 0.025 0.1
0.85 0.475 0.1
0.85 0.45 0.1
0.85 0.425 0.1
0.85 0.4 0.1
0.85 0.375 0.1
0.85 0.35 0.1
0.85 0.325 0.1
0.85 0.3 0.1
0.85 0.275 0.1
0.85 0.25 0.1
0.85 0.225 0.1
0.85 0.2 0.1
0.85 0.175 0.1
0.85 0.15 0.1
0.85 0.125 0.1
0.85 0.1 0.1
0.85 0.075 0.1
0.85 0.05 0.1
0.85 0.025 0.1
0.825 0.475 0.1
0.825 0.45 0.1
0.825 0.425 0.1
0.825 0.4 0.1
0.825 0.375 0.1
0.825 0.35 0.1
0.825 0.325 0.1
0.825 0.3 0.1
0.825 0.275 0.1
0.825 0.25 0.1
0.825 0.225 0.1
0.825 0.2 0.1
0.825 0.175 0.1
0.825 0.15 0.1
0.825 0.125 0.1
0.825 0.1 0.1
0.825 0.075 0.1
0.825 0.05 0.1
0.825 0.025 0.1
0.8 0.475 0.1
0.8 0.45 0.1
0.8 0.425 0.1
0.8 0.4 0.1
0.8 0.375 0.1
0.8 0.35 0.1
0.8 0.325 0.1
0.8 0.3 0.1
0.8 0.275 0.1
0.8 0.25 0.1
0.8 0.225 0.1
0.8 0.2 0.1
0.8 0.175 0.1
0.8 0.15 0.1
0.8 0.125 0.1
0.8 0.1 0.1
0.8 0.075 0.1
0.8 0.05 0.1
0.8 0.025 0.1
0.775 0.475 0.1
0.775 0.45 0.1
0.775 0.425 0.1
0.775 0.4 0.1
0.775 0.375 0.1
0.775 0.35 0.1
0.775 0.325 0.1
0.775 0.3 0.1
0.775 0.275 0.1
0.775 0.25 0.1
0.775 0.225 0.1
0.775 0.2 0.1
0.775 0.175 0.1
0.775 0.15 0.1
0.775 0.125 0.1
0.775 0.1 0.1
0.775 0.075 0.1
0.775 0.05 0.1
0.775 0.025 0.1
0.75 0.475 0.1
0.75 0.45 0.1
0.75 0.425 0.1
0.75 0.4 0.1
0.75 0.375 0.1
0.75 0.35 0.1
0.75 0.325 0.1
0.75 0.3 0.1
0.75 0.275 0.1
0.75 0.25 0.1
0.75 0.225 0.1
0.75 0.2 0.1
0.75 0.175 0.1
0.75 0.15 0.1
0.75 0.125 0.1
0.75 0.1 0.1
0.75 0.075 0.1
0.75 0.05 0.1
0.75 0.025 0.1
0.725 0.475 0.1
0.725 0.45 0.1
0.725 0.425 0.1
0.725 0.4 0.1
0.725 0.375 0.1
0.725 0.35 0.1
0.725 0.325 0.1
0.725 0.3 0.1
0.725 0.275 0.1
0.725 0.25 0.1
0.725 0.225 0.1
0.725 0.2 0.1
0.725 0.175 0.1
0.725 0.15 0.1
0.725 0.125 0.1
0.725 0.1 0.1
0.725 0.075 0.1
0.725 0.05 0.1
0.725 0.025 0.1
0.7 0.475 0.1
0.7 0.45 0.1
0.7 0.425 0.1
0.7 0.4 0.1
0.7 0.375 0.1
0.7 0.35 0.1
0.7 0.325 0.1
0.7 0.3 0.1
0.7 0.275 0.1
0.7 0.25 0.1
0.7 0.225 0.1
0.7 0.2 0.1
0.7 0.175 0.1
0.7 0.15 0.1
0.7 0.125 0.1
0.7 0.1 0.1
0.7 0.075 0.1
0.7 0.05 0.1
0.7 0.025 0.1
0.675 0.475 0.1
0.675 0.45 0.1
0.675 0.425 0.1
0.675 0.4 0.1
0.675 0.375 0.1
0.675 0.35 0.1
0.675 0.325 0.1
0.675 0.3 0.1
0.675 0.275 0.1
0.675 0.25 0.1
0.675 0.225 0.1
0.675 0.2 0.1
0.675 0.175 0.1
0.675 0.15 0.1
0.675 0.125 0.1
0.675 0.1 0.1
0.675 0.075 0.1
0.675 0.05 0.1
0.675 0.025 0.1
0.65 0.475 0.1
0.65 0.45 0.1
0.65 0.425 0.1
0.65 0.4 0.1
0.65 0.375 0.1
0.65 0.35 0.1
0.65 0.325 0.1
0.65 0.3 0.1
0.65 0.275 0.1
0.65 0.25 0.1
0.65 0.225 0.1
0.65 0.2 0.1
0.65 0.175 0.1
0.65 0.15 0.1
0.65 0.125 0.1
0.65 0.1 0.1
0.65 0.075 0.1
0.65 0.05 0.1
0.65 0.025 0.1
0.625 0.475 0.1
0.625 0.45 0.1
0.625 0.425 0.1
0.625 0.4 0.1
0.625 0.375 0.1
0.625 0.35 0.1
0.625 0.325 0.1
0.625 0.3 0.1
0.625 0.275 0.1
0.625 0.25 0.1
0.625 0.225 0.1
0.625 0.2 0.1
0.625 0.175 0.1
0.625 0.15 0.1
0.625 0.125 0.1
0.625 0.1 0.1
0.625 0.075 0.1
0.625 0.05 0.1
0.625 0.025 0.1
0.6 0.475 0.1
0.6 0.45 0.1
0.6 0.425 0.1
0.6 0.4 0.1
0.6 0.375 0.1
0.6 0.35 0.1
0.6 0.325 0.1
0.6 0.3 0.1
0.6 0.275 0.1
0.6 0.25 0.1
0.6 0.225 0.1
0.6 0.2 0.1
0.6 0.175 0.1
0.6 0.15 0.1
0.6 0.125 0.1
0.6 0.1 0.1
0.6 0.075 0.1
0.6 0.05 0.1
0.6 0.025 0.1
0.575 0.475 0.1
0.575 0.45 0.1
0.575 0.425 0.1
0.575 0.4 0.1
0.575 0.375 0.1
0.575 0.35 0.1
0.575 0.325 0.1
0.575 0.3 0.1
0.575 0.275 0.1
0.575 0.25 0.1
0.575 0.225 0.1
0.575 0.2 0.1
0.575 0.175 0.1
0.575 0.15 0.1
0.575 0.125 0.1
0.575 0.1 0.1
0.575 0.075 0.1
0.575 0.05 0.1
0.575 0.025 0.1
0.55 0.475 0.1
0.55 0.45 0.1
0.55 0.425 0.1
0.55 0.4 0.1
0.55 0.375 0.1
0.55 0.35 0.1
0.55 0.325 0.1
0.55 0.3 0.1
0.55 0.275 0.1
0.55 0.25 0.1
0.55 0.225 0.1
0.55 0.2 0.1
0.55 0.175 0.1
0.55 0.15 0.1
0.55 0.125 0.1
0.55 0.1 0.1
0.55 0.075 0.1
0.55 0.05 0.1
0.55 0.025 0.1
0.525 0.475 0.1
0.525 0.45 0.1
0.525 0.425 0.1
0.525 0.4 0.1
0.525 0.375 0.1
0.525 0.35 0.1
0.525 0.325 0.1
0.525 0.3 0.1
0.525 0.275 0.1
0.525 0.25 0.1
0.525 0.225 0.1
0.525 0.2 0.1
0.525 0.175 0.1
0.525 0.15 0.1
0.525 0.125 0.1
0.525 0.1 0.1
0.525 0.075 0.1
0.525 0.05 0.1
0.525 0.025 0.1
0.5 0.475 0.1
0.5 0.45 0.1
0.5 0.425 0.1
0.5 0.4 0.1
0.5 0.375 0.1
0.5 0.35 0.1
0.5 0.325 0.1
0.5 0.3 0.1
0.5 0.275 0.1
0.5 0.25 0.1
0.5 0.225 0.1
0.5 0.2 0.1
0.5 0.175 0.1
0.5 0.15 0.1
0.5 0.125 0.1
0.5 0.1 0.1
0.5 0.075 0.1
0.5 0.05 0.1
0.5 0.025 0.1
0.475 0.475 0.1
0.475 0.45 0.1
0.475 0.425 0.1
0.475 0.4 0.1
0.475 0.375 0.1
0.475 0.35 0.1
0.475 0.325 0.1
0.475 0.3 0.1
0.475 0.275 0.1
0.475 0.25 0.1
0.475 0.225 0.1
0.475 0.2 0.1
0.475 0.175 0.1
0.475 0.15 0.1
0.475 0.125 0.1
0.475 0.1 0.1
0.475 0.075 0.1
0.475 0.05 0.1
0.475 0.025 0.1
0.45 0.475 0.1
0.45 0.45 0.1
0.45 0.425 0.1
0.45 0.4 0.1
0.45 0.375 0.1
0.45 0.35 0.1
0.45 0.325 0.1
0.45 0.3 0.1
0.45 0.275 0.1
0.45 0.25 0.1
0.45 0.225 0.1
0.45 0.2 0.1
0.45 0.175 0.1
0.45 0.15 0.1
0.45 0.125 0.1
0.45 0.1 0.1
0.45 0.075 0.1
0.45 0.05 0.1
0.45 0.025 0.1
0.425 0.475 0.1
0.425 0.45 0.1
0.425 0.425 0.1
0.425 0.4 0.1
0.425 0.375 0.1
0.425 0.35 0.1
0.425 0.325 0.1
0.425 0.3 0.1
0.425 0.275 0.1
0.425 0.25 0.1
0.425 0.225 0.1
0.425 0.2 0.1
0.425 0.175 0.1
0.425 0.15 0.1
0.425 0.125 0.1
0.425 0.1 0.1
0.425 0.075 0.1
0.425 0.05 0.1
0.425 0.025 0.1
0.4 0.475 0.1
0.4 0.45 0.1
0.4 0.425 0.1
0.4 0.4 0.1
0.4 0.375 0.1
0.4 0.35 0.1
0.4 0.325 0.1
0.4 0.3 0.1
0.4 0.275 0.1
0.4 0.25 0.1
0.4 0.225 0.1
0.4 0.2 0.1
0.4 0.175 0.1
0.4 0.15 0.1
0.4 0.125 0.1
0.4 0.1 0.1
0.4 0.075 0.1
0.4 0.05 0.1
0.4 0.025 0.1
0.375 0.475 0.1
0.375 0.45 0.1
0.375 0.425 0.1
0.375 0.4 0.1
0.375 0.375 0.1
[...]
    <PointData>
      <DataArray type="Float64" NumberOfComponents="3" Name="Velocity" format="ascii">
0 0 0
0 0 0
0 0 0
0 0 0
0 0 0
0 0 0
0 0 0
0 0 0
0 0 0
0 0 0
0 0 0
0 0 0
0 0 0
0 0 0
0 0 0
0 0 0
0 0 0
0 0 0
0 0 0
0 0 0
0 0 0
0 0 0
0 0 0
0 0 0
0 0 0
0 0 0
0 0 0
0 0 0
0 0 0
0 0 0
0 0 0
0 0 0
0 0 0
0 0 0
0 0 0
0 0 0
0 0 0
0 0 0
0 0 0
0 0 0
0 0 0
0 0 0
0 0 0
0 0 0
0 0 0
0 0 0
0 0 0
0 0 0
0 0 0
0 0 0
0 0 0
0 0 0
0 0 0
0 0 0
0 0 0
0 0 0
0 0 0
0 0 0
0 0 0
0 0 0
0 0 0
0 0 0
0 0 0
0 0 0
0 0 0
0 0 0
0 0 0
0 0 0
0 0 0
0 0 0
0 0 0
0 0 0
0 0 0
0 0 0
0 0 0
0 0 0
0 0 0
0 0 0
0 0 0
0 0 0
0 0 0
0 0 0
0 0 0
0 0 0
0 0 0
0 0 0
0 0 0
0 0 0
0 0 0
0 0 0
0 0 0
0 0 0
0 0 0
0 0 0
0 0 0
0 0 0
0 0 0
0 0 0
0 0 0
0 0 0
0 0 0
0 0 0
0 0 0
0 0 0
0 0 0
0 0 0
0 0 0
0 0 0
0 0 0
0 0 0
0 0 0
0 0 0
0 0 0
0 0 0
0 0 0
0 0 0
0 0 0
0 0 0
0 0 0
0 0 0
0 0 0
0 0 0
-0.00282708 -0.0407118 0
-0.0098883 -0.0745715 0
-0.0202671 -0.102561 0
-0.0323156 -0.125236 0
-0.0460758 -0.142798 0
-0.0611317 -0.154864 0
-0.0761439 -0.162061 0
-0.0909351 -0.164523 0
-0.105183 -0.162676 0
-0.118297 -0.157357 0
-0.1302 -0.148595 0
-0.140712 -0.13709 0
-0.149688 -0.123168 0
-0.157311 -0.107201 0
-0.163542 -0.0899594 0
-0.168307 -0.0715468 0
-0.171731 -0.0524323 0
-0.173754 -0.0329912 0
-0.174471 -0.0133645 0
-0.173964 0.0060481 0
-0.172253 0.0251545 0
-0.169388 0.0438678 0
-0.165354 0.0618491 0
-0.160122 0.0790393 0
-0.153746 0.095161 0
-0.146223 0.109952 0
-0.137603 0.123302 0
-0.12794 0.134718 0
-0.117183 0.143968 0
-0.1055 0.150754 0
-0.0930863 0.154606 0
-0.0799586 0.155432 0
-0.0665251 0.152629 0
-0.053262 0.145698 0
-0.0406547 0.13393 0
-0.0287748 0.116832 0
-0.0181 0.0946301 0
-0.00917047 0.0673416 0
-0.00311886 0.0348616 0
-0.00124701 -0.0199701 0
-0.00588952 -0.0584043 0
-0.0148665 -0.0892964 0
-0.0261491 -0.114613 0
-0.0390588 -0.134748 0
-0.0536403 -0.149619 0
-0.0687435 -0.159219 0
-0.0836689 -0.164056 0
-0.098261 -0.164279 0
-0.111963 -0.160667 0
-0.124473 -0.153567 0
-0.135697 -0.143343 0
-0.145434 -0.130607 0
-0.153712 -0.115561 0
-0.160654 -0.0989002 0
-0.16614 -0.0810518 0
-0.170229 -0.0621995 0
-0.172954 -0.0429069 0
-0.174304 -0.0233032 0
-0.174391 -0.00370761 0
-0.173272 0.0155773 0
-0.170971 0.0345504 0
-0.167521 0.0529335 0
-0.162877 0.0705542 0
-0.157061 0.0872784 0
-0.150104 0.10276 0
-0.142014 0.116893 0
-0.132869 0.129329 0
-0.122648 0.139684 0
-0.111393 0.147777 0
-0.0993458 0.153104 0
-0.0865523 0.155463 0
-0.0732124 0.154564 0
-0.059822 0.149744 0
-0.0468575 0.140536 0
-0.0345649 0.126088 0
-0.0232239 0.106408 0
-0.013321 0.0816879 0
-0.00567534 0.0518508 0
-0.00285851 0.0164055 0
0 0 0
0 0 0
0 0 0
0 0 0
0 0 0
0 0 0
0 0 0
0 0 0
0 0 0
0 0 0
0 0 0
0 0 0
0 0 0
0 0 0
0 0 0
0 0 0
0 0 0
0 0 0
0 0 0
0 0 0
0 0 0
0 0 0
0 0 0
0 0 0
0 0 0
0 0 0
0 0 0
0 0 0
0 0 0
0 0 0
0 0 0
0 0 0
0 0 0
0 0 0
0 0 0
0 0 0
0 0 0
0 0 0
0 0 0
-0.00432711 -0.034697 0
-0.00423196 -0.0297992 0
-0.00365955 -0.0249838 0
-0.00242846 -0.02112 0
-0.00181575 -0.0183221 0
-0.00156795 -0.0157753 0
-0.00141647 -0.0134102 0
-0.00128917 -0.0112312 0
-0.00116884 -0.00923976 0
-0.00105096 -0.0074348 0
-0.000933565 -0.00581492 0
-0.000814909 -0.0043804 0
-0.000693169 -0.00313418 0
-0.000566678 -0.00208218 0
-0.000434632 -0.00123294 0
-0.000298503 -0.000596648 0
-0.000163172 -0.000183172 0
-3.02377e-05 1.28539e-05 0
5.39259e-05 4.46932e-05 0
-0.0105368 -0.0638719 0
-0.0103848 -0.055321 0
-0.00936451 -0.0478899 0
-0.00737735 -0.0414597 0
-0.00607449 -0.0359362 0
-0.00536669 -0.0308693 0
-0.00485478 -0.0262636 0
-0.0044108 -0.0220766 0
-0.00399553 -0.0182777 0
-0.00359437 -0.0148465 0
-0.00319919 -0.011771 0
-0.00280332 -0.00904556 0
-0.00240046 -0.00667044 0
-0.00198514 -0.00465102 0
-0.00155427 -0.00299625 0
-0.00111014 -0.00171586 0
-0.000665611 -0.000813919 0
-0.000256939 -0.000273663 0
2.28978e-05 -3.9224e-05 0
-0.019413 -0.0887928 0
-0.0185526 -0.0776143 0
-0.0169515 -0.0679705 0
-0.0145579 -0.0595051 0
-0.0126608 -0.0518407 0
-0.011306 -0.0446575 0
-0.0102199 -0.0381059 0
-0.00926683 -0.0321607 0
-0.00838509 -0.0267763 0
-0.00754335 -0.021917 0
-0.00672206 -0.0175591 0
-0.00590606 -0.0136892 0
-0.00508235 -0.010302 0
-0.00424042 -0.00739861 0
-0.00337471 -0.00498395 0
-0.00248979 -0.00306345 0
-0.00160995 -0.00163666 0
-0.000797199 -0.000687797 0
-0.000180763 -0.000174861 0
-0.0305141 -0.109215 0
-0.0287149 -0.0961633 0
-0.02639 -0.0847574 0
-0.0235548 -0.0746203 0
-0.0211202 -0.06537 0
-0.0190359 -0.0565983 0
-0.0172419 -0.0485121 0
-0.0156365 -0.0411313 0
-0.0141497 -0.034426 0
-0.0127364 -0.0283611 0
-0.0113651 -0.0229092 0
-0.010011 -0.0180517 0
-0.0086535 -0.0137782 0
-0.00727646 -0.0100849 0
-0.00587162 -0.00697234 0
-0.004445 -0.00444288 0
-0.0030284 -0.00249628 0
-0.00169787 -0.00112492 0
-0.000601504 -0.00030758 0
-0.0432467 -0.125044 0
-0.0404343 -0.110746 0
-0.0373861 -0.0981026 0
-0.0339963 -0.0866803 0
-0.0309339 -0.0763026 0
-0.0281127 -0.0664072 0
-0.0255646 -0.0571932 0
-0.0232297 -0.0487178 0
-0.0210475 -0.0409763 0
-0.0189696 -0.0339459 0
-0.0169568 -0.0276024 0
-0.0149768 -0.0219266 0
-0.0130017 -0.0169055 0
-0.0110098 -0.0125323 0
-0.00898898 -0.00880505 0
-0.00694391 -0.00572602 0
-0.00490742 -0.00329978 0
-0.00295757 -0.00153258 0
-0.00124093 -0.000431635 0
-0.0569797 -0.136329 0
-0.0531499 -0.121385 0
-0.0494558 -0.108038 0
-0.045493 -0.0958194 0
-0.0416948 -0.0846613 0
-0.038143 -0.0739887 0
-0.0348358 -0.0639951 0
-0.0317415 -0.0547453 0
-0.0288173 -0.0462504 0
-0.0260197 -0.0384995 0
-0.0233078 -0.0314751 0
-0.0206444 -0.0251606 0
-0.0179961 -0.0195434 0
-0.0153354 -0.014616 0
-0.0126449 -0.0103772 0
-0.00992404 -0.0068319 0
-0.00719958 -0.00399305 0
-0.00453976 -0.00188361 0
-0.00207189 -0.000538992 0
-0.0711053 -0.143249 0
-0.0663532 -0.12815 0
-0.0620834 -0.114558 0
-0.0576154 -0.102017 0
-0.0530824 -0.0904365 0
-0.0487965 -0.0793073 0
-0.0447349 -0.0688464 0
-0.0408785 -0.0591183 0
-0.0371985 -0.0501405 0
-0.0336589 -0.0419107 0
-0.0302207 -0.034418 0
-0.0268445 -0.0276503 0
-0.0234926 -0.0215976 0
-0.0201318 -0.0162545 0
-0.0167377 -0.0116224 0
-0.0133008 -0.0077118 0
-0.0098352 -0.00454546 0
-0.00638978 -0.00216309 0
-0.00306021 -0.000624564 0
-0.0851288 -0.145929 0
-0.0795848 -0.131123 0
-0.0748271 -0.117698 0
-0.0699314 -0.105225 0
-0.0647436 -0.0936048 0
-0.0597537 -0.0823569 0
-0.0549625 -0.0717303 0
-0.0503635 -0.0618024 0
-0.0459395 -0.0525982 0
-0.0416623 -0.0441223 0
-0.0374964 -0.0363707 0
-0.033402 -0.0293363 0
-0.0293381 -0.0230134 0
-0.0252657 -0.0174005 0
-0.0211519 -0.0125035 0
-0.0169749 -0.00833948 0
-0.0127313 -0.00494143 0
-0.00844338 -0.0023639 0
-0.00416753 -0.00068622 0
-0.0986136 -0.144838 0
-0.0924412 -0.13067 0
-0.087321 -0.11773 0
-0.0820836 -0.105621 0
-0.0763364 -0.0942602 0
-0.0707088 -0.0831936 0
-0.0652373 -0.0726827 0
-0.0599365 -0.0628154 0
-0.0548018 -0.0536252 0
-0.0498132 -0.0451242 0
-0.0449394 -0.037315 0
-0.0401416 -0.0301968 0
-0.0353761 -0.0237688 0
-0.030598 -0.0180344 0
-0.0257645 -0.0130051 0
-0.0208394 -0.00870481 0
-0.015798 -0.00517563 0
-0.0106319 -0.00248405 0
-0.00535382 -0.000723521 0
-0.111271 -0.140447 0
-0.104645 -0.127131 0
-0.0992966 -0.11491 0
-0.0938098 -0.103402 0
-0.0875787 -0.0925572 0
-0.0813864 -0.0819353 0
-0.0753016 -0.0717919 0
-0.0693577 -0.0622214 0
-0.063563 -0.0532657 0
-0.0579065 -0.0449447 0
-0.052362 -0.0372681 0
-0.0468922 -0.0302409 0
-0.0414514 -0.0238682 0
-0.0359884 -0.0181585 0
-0.0304502 -0.0131289 0
-0.0247846 -0.00880948 0
-0.0189435 -0.00524989 0
-0.0128859 -0.00252502 0
-0.00657923 -0.000737053 0
-0.122884 -0.132986 0
-0.115969 -0.120735 0
-0.110514 -0.109452 0
-0.104853 -0.0987887 0
-0.0982132 -0.0887012 0
-0.0915439 -0.0787504 0
-0.0849263 -0.0691906 0
-0.0784113 -0.0601238 0
-0.0720206 -0.0515995 0
-0.0657529 -0.0436447 0
-0.0595881 -0.0362754 0
-0.0534909 -0.0295028 0
-0.0474138 -0.0233369 0
-0.0413002 -0.0177917 0
-0.0350859 -0.012889 0
-0.0287024 -0.00866394 0
-0.0220777 -0.00517126 0
-0.0151377 -0.00249065 0
-0.00780548 -0.000728078 0
-0.133285 -0.123026 0
-0.126239 -0.111962 0
-0.120771 -0.101766 0
-0.114998 -0.0921201 0
-0.10804 -0.08295 0
-0.100983 -0.0738417 0
-0.0939175 -0.0650422 0
-0.0869093 -0.0566546 0
-0.0799943 -0.0487328 0
-0.073181 -0.0413091 0
-0.0664558 -0.0344048 0
-0.059786 -0.0280357 0
-0.0531227 -0.0222168 0
-0.0464037 -0.0169661 0
-0.0395544 -0.0123093 0
-0.0324899 -0.00828506 0
-0.0251151 -0.00495047 0
-0.0173237 -0.0023865 0
-0.00899681 -0.000698327 0
-0.14234 -0.11087 0
-0.135324 -0.10116 0
-0.129929 -0.0921779 0
-0.124099 -0.0836715 0
-0.116909 -0.0755498 0
-0.109547 -0.0674225 0
-0.102114 -0.0595269 0
-0.0946919 -0.0519645 0
-0.0873276 -0.0447908 0
-0.0800397 -0.0380411 0
-0.0728205 -0.0317402 0
-0.0656402 -0.0259075 0
-0.0584491 -0.0205615 0
-0.0511795 -0.0157232 0
-0.0437472 -0.0114208 0
-0.036052 -0.00769438 0
-0.0279766 -0.00460098 0
-0.0193853 -0.00221935 0
-0.0101207 -0.000649863 0
-0.149975 -0.0968294 0
-0.143094 -0.0886133 0
-0.137866 -0.0809757 0
-0.132036 -0.0737147 0
-0.124696 -0.066745 0
-0.117106 -0.0597091 0
-0.109385 -0.0528328 0
-0.101625 -0.046215 0
-0.0938875 -0.0399106 0
-0.086198 -0.0339558 0
-0.0785553 -0.028377 0
-0.0709321 -0.023196 0
-0.0632779 -0.0184332 0
-0.0555205 -0.0141112 0
-0.0475669 -0.0102593 0
-0.0393028 -0.00691668 0
-0.0305913 -0.00413805 0
-0.0212702 -0.0019968 0
-0.0111481 -0.000584971 0
-0.156202 -0.0814478 0
-0.149502 -0.0747545 0
-0.144507 -0.0685138 0
-0.138733 -0.0625452 0
-0.131309 -0.0567842 0
-0.123562 -0.0509179 0
-0.115623 -0.0451503 0
-0.107601 -0.0395722 0
-0.0995633 -0.0342355 0
-0.091546 -0.0291752 0
-0.0835521 -0.0244178 0
-0.0755569 -0.0199856 0
-0.0675093 -0.0158996 0
-0.0593333 -0.0121829 0
-0.0509281 -0.00886369 0
-0.0421675 -0.00597886 0
-0.0328975 -0.00357813 0
-0.0229332 -0.00172695 0
-0.0120543 -0.000506073 0
-0.161059 -0.0649721 0
-0.154559 -0.0598433 0
-0.149817 -0.055037 0
-0.144145 -0.0504003 0
-0.136687 -0.045897 0
-0.12884 -0.0412597 0
-0.120748 -0.0366686 0
-0.112531 -0.0322038 0
-0.104266 -0.027912 0
-0.0959937 -0.0238253 0
-0.0877217 -0.0199689 0
-0.0794275 -0.0163643 0
-0.0710597 -0.013032 0
-0.0625392 -0.00999359 0
-0.053759 -0.007275 0
-0.0445829 -0.00490898 0
-0.0348431 -0.00293831 0
-0.0243362 -0.00141819 0
-0.0128183 -0.000415659 0
-0.164589 -0.0477453 0
-0.158291 -0.0441776 0
-0.153776 -0.0408005 0
-0.148235 -0.037519 0
-0.14078 -0.0343062 0
-0.132882 -0.0309403 0
-0.124697 -0.0275743 0
-0.116351 -0.0242762 0
-0.107927 -0.0210863 0
-0.0994707 -0.0180328 0
-0.0909935 -0.0151382 0
-0.0824744 -0.012422 0
-0.073862 -0.00990268 0
-0.0650749 -0.00759964 0
-0.0560015 -0.00553495 0
-0.046498 -0.00373564 0
-0.0363862 -0.00223596 0
-0.0254487 -0.001079 0
-0.0134236 -0.000316229 0
-0.16684 -0.030112 0
-0.160741 -0.0280526 0
-0.156403 -0.0260751 0
-0.150981 -0.0241427 0
-0.143557 -0.0222324 0
-0.135653 -0.0201611 0
-0.127428 -0.01805 0
-0.119013 -0.0159533 0
-0.110496 -0.0139035 0
-0.101926 -0.0119239 0
-0.0933153 -0.0100332 0
-0.0846457 -0.00824821 0
-0.0758656 -0.00658445 0
-0.0668924 -0.00505775 0
-0.0576115 -0.00368536 0
-0.0478742 -0.00248743 0
-0.0374952 -0.00148835 0
-0.0262476 -0.000717789 0
-0.0138577 -0.00021026 0
-0.167829 -0.0122389 0
-0.161909 -0.0116572 0
-0.157696 -0.011074 0
-0.152374 -0.0104915 0
-0.145005 -0.0098875 0
-0.137133 -0.00911769 0
-0.128917 -0.0082736 0
-0.120491 -0.00739491 0
-0.111943 -0.00650535 0
-0.103326 -0.00562225 0
-0.0946528 -0.0047601 0
-0.0859067 -0.00393178 0
-0.0770365 -0.00314922 0
-0.0679593 -0.00242395 0
-0.0585592 -0.00176762 0
-0.0486852 -0.00119259 0
-0.0381486 -0.000712538 0
-0.0267176 -0.000342831 0
-0.0141124 -0.000100175 0
-0.167555 0.00558152 0
-0.161771 0.00474284 0
-0.157654 0.00395203 0
-0.152419 0.00320844 0
-0.145125 0.00252537 0
-0.137319 0.00200315 0
-0.129158 0.00158378 0
-0.120773 0.00124409 0
-0.112255 0.00097007 0
-0.103655 0.000750966 0
-0.0949893 0.000577278 0
-0.08624 0.000440349 0
-0.0773571 0.000332402 0
-0.0682585 0.000246689 0
-0.0588287 0.000177673 0
-0.0489171 0.000121219 0
-0.0383349 7.48142e-05 0
-0.0268504 3.7814e-05 0
-0.0141833 1.1671e-05 0
-0.166023 0.02316 0
-0.16033 0.0209547 0
-0.156285 0.0188217 0
-0.151135 0.0167721 0
-0.143934 0.0148203 0
-0.136224 0.0130241 0
-0.128159 0.0113576 0
-0.119866 0.00981378 0
-0.111435 0.00838859 0
-0.102916 0.00707798 0
-0.0943251 0.0058776 0
-0.0856446 0.00478323 0
-0.0768257 0.00379144 0
-0.0677879 0.00290042 0
-0.0584178 0.00211088 0
-0.0485679 0.00142701 0
-0.0380528 0.000857482 0
-0.0266452 0.000416316 0
-0.0140701 0.000122999 0
-0.163225 0.0403509 0
-0.157593 0.0367985 0
-0.153607 0.0333496 0
-0.148537 0.0300163 0
-0.141451 0.0268167 0
-0.13387 0.023773 0
-0.125942 0.0208878 0
-0.117791 0.0181684 0
-0.109503 0.0156197 0
-0.101127 0.0132441 0
-0.092677 0.0110422 0
-0.084136 0.00901411 0
-0.0754564 0.00716067 0
-0.0665602 0.00548485 0
-0.057338 0.0039934 0
-0.0476475 0.00269853 0
-0.0373104 0.00161969 0
-0.026108 0.000785076 0
-0.0137762 0.0002316 0
-0.159196 0.0568676 0
-0.153607 0.0520283 0
-0.149656 0.0473068 0
-0.144662 0.0427302 0
-0.137712 0.0383269 0
-0.130292 0.0340785 0
-0.122543 0.0300174 0
-0.114584 0.0261655 0
-0.106495 0.022536 0
-0.0983222 0.0191374 0
-0.090078 0.0159748 0
-0.0817454 0.0130524 0
-0.0732785 0.0103746 0
-0.0646025 0.00794897 0
-0.0556136 0.00578764 0
-0.0461772 0.00391021 0
-0.0361252 0.00234611 0
-0.0252518 0.00113671 0
-0.0133087 0.00033533 0
-0.153974 0.0725843 0
-0.148418 0.0664705 0
-0.144471 0.0605038 0
-0.139556 0.0547251 0
-0.132767 0.049168 0
-0.125542 0.0437705 0
-0.118014 0.038591 0
-0.110296 0.0336646 0
-0.102462 0.0290126 0
-0.0945515 0.0246485 0
-0.0865767 0.0205817 0
-0.0785197 0.0168194 0
-0.0703363 0.0133696 0
-0.0619561 0.0102432 0
-0.0532822 0.00745704 0
-0.0441897 0.0050372 0
-0.0345239 0.0030218 0
-0.0240958 0.00146402 0
-0.0126782 0.000432099 0
-0.147576 0.0872551 0
-0.142053 0.0798892 0
-0.138102 0.0727186 0
-0.13328 0.0658019 0
-0.126676 0.0591572 0
-0.119682 0.0526804 0
-0.112421 0.046455 0
-0.104995 0.0405277 0
-0.0974694 0.0349269 0
-0.0898811 0.0296706 0
-0.0822376 0.0247713 0
-0.0745208 0.0202389 0
-0.0666887 0.0160836 0
-0.0586757 0.0123191 0
-0.0503933 0.00896602 0
-0.0417284 0.00605524 0
-0.0325421 0.00363217 0
-0.0226662 0.00175997 0
-0.0118989 0.000519861 0
-0.140051 0.100641 0
-0.134567 0.0920682 0
-0.130621 0.083749 0
-0.125912 0.0757639 0
-0.119518 0.068111 0
-0.112794 0.0606402 0
-0.105846 0.053457 0
-0.0987619 0.0466185 0
-0.091601 0.0401587 0
-0.0843923 0.0340992 0
-0.0771399 0.0284547 0
-0.0698251 0.0232365 0
-0.0624082 0.0184566 0
-0.0548292 0.0141301 0
-0.0470086 0.01028 0
-0.0388471 0.00694078 0
-0.030224 0.00416302 0
-0.020995 0.00201768 0
-0.0109883 0.000596597 0
-0.131432 0.112582 0
-0.126008 0.102822 0
-0.1221 0.0934114 0
-0.117529 0.0844267 0
-0.111383 0.075848 0
-0.104973 0.0674826 0
-0.0983853 0.0594466 0
-0.0916967 0.0518035 0
-0.0849547 0.0445911 0
-0.0781817 0.0378333 0
-0.0713778 0.0315459 0
-0.0645234 0.025741 0
-0.057581 0.0204307 0
-0.0504967 0.0156311 0
-0.0432011 0.0113658 0
-0.0356096 0.00767095 0
-0.027622 0.00460046 0
-0.0191205 0.00223038 0
-0.00996739 0.000660315 0
-0.121775 0.122694 0
-0.116467 0.111837 0
-0.112642 0.101443 0
-0.108231 0.0915662 0
-0.102381 0.082179 0
-0.0963327 0.073041 0
-0.0901564 0.0642762 0
-0.0839149 0.0559527 0
-0.077645 0.0481111 0
-0.0713615 0.0407759 0
-0.0650601 0.0339631 0
-0.0587199 0.0276845 0
-0.0523059 0.0219514 0
-0.0457704 0.0167794 0
-0.0390545 0.0121915 0
-0.0320893 0.00822387 0
-0.0247963 0.00493109 0
-0.0170868 0.00239146 0
-0.0088602 0.000709039 0
-0.111183 0.130753 0
-0.106076 0.118894 0
-0.10238 0.107628 0
-0.0981587 0.0969833 0
-0.09265 0.0869239 0
-0.0870096 0.0771543 0
-0.0812937 0.0678032 0
-0.0755499 0.0589421 0
-0.069803 0.0506119 0
-0.0640593 0.0428365 0
-0.0583096 0.0356306 0
-0.052532 0.0290045 0
-0.0466937 0.0229683 0
-0.0407531 0.0175355 0
-0.0346622 0.0127277 0
-0.028368 0.00857894 0
-0.0218145 0.00514213 0
-0.0149435 0.00249452 0
-0.00769404 0.000740819 0
-0.099777 0.136509 0
-0.0949821 0.123759 0
-0.0914692 0.111764 0
-0.0874664 0.100502 0
-0.0823436 0.0899122 0
-0.077158 0.0796666 0
-0.0719518 0.0698919 0
-0.0667542 0.0606558 0
-0.0615769 0.0519959 0
-0.0564177 0.0439334 0
-0.0512628 0.0364807 0
-0.0460889 0.0296459 0
-0.0408656 0.0234369 0
-0.0355572 0.0178648 0
-0.0301261 0.0129481 0
-0.0245351 0.00871759 0
-0.0187505 0.00522177 0
-0.012745 0.00253349 0
-0.00649914 0.000753746 0
-0.0877686 0.139544 0
-0.0834089 0.126112 0
-0.080125 0.113594 0
-0.0763443 0.101901 0
-0.0716404 0.0909592 0
-0.0669585 0.0804257 0
-0.0623088 0.070417 0
-0.0577003 0.060991 0
-0.053132 0.0521789 0
-0.0485941 0.0439981 0
-0.0440684 0.0364579 0
-0.0395306 0.029564 0
-0.0349521 0.0233216 0
-0.0303029 0.0177391 0
-0.0255551 0.0128314 0
-0.0206861 0.00862422 0
-0.0156836 0.00515974 0
-0.0105504 0.00250282 0
-0.00530839 0.000745992 0
-0.0754175 0.139671 0
-0.0716245 0.12576 0
-0.0685768 0.112916 0
-0.0650075 0.100972 0
-0.0607609 0.0898907 0
-0.0566254 0.0792968 0
-0.0525687 0.0692737 0
-0.0485807 0.0598651 0
-0.0446499 0.0510959 0
-0.0407591 0.0429796 0
-0.0368861 0.0355226 0
-0.0330054 0.028728 0
-0.0290905 0.0225986 0
-0.0251162 0.01714 0
-0.0210628 0.012363 0
-0.0169208 0.00828775 0
-0.012697 0.00494816 0
-0.00842189 0.00239789 0
-0.00415695 0.000715879 0
-0.063058 0.136509 0
-0.0598927 0.122405 0
-0.0570413 0.109468 0
-0.053698 0.097521 0
-0.0499655 0.0865756 0
-0.0464026 0.076185 0
-0.0429563 0.0663903 0
-0.0396044 0.0572242 0
-0.036325 0.0487074 0
-0.0330934 0.0408503 0
-0.0298832 0.0336562 0
-0.0266678 0.0271258 0
-0.0234221 0.02126 0
-0.0201253 0.0160617 0
-0.0167644 0.0115382 0
-0.0133403 0.00770372 0
-0.00987531 0.00458292 0
-0.00642342 0.00221558 0
-0.00308152 0.000662014 0
-0.0510587 0.129625 0
-0.0484699 0.115722 0
-0.0457745 0.103051 0
-0.0427338 0.09146 0
-0.0395426 0.0809666 0
-0.036545 0.0710512 0
-0.0337055 0.0617352 0
-0.0309894 0.0530476 0
-0.0283604 0.0450045 0
-0.0257846 0.0376108 0
-0.0232316 0.0308663 0
-0.020674 0.0247691 0
-0.0180886 0.0193185 0
-0.0154576 0.0145159 0
-0.0127733 0.0103659 0
-0.0100435 0.00687742 0
-0.00730156 0.00406579 0
-0.00461853 0.00195537 0
-0.00211924 0.000583537 0
-0.0396527 0.118636 0
-0.0376477 0.105551 0
-0.0351201 0.0936957 0
-0.0324052 0.0828627 0
-0.029736 0.073082 0
-0.0272883 0.0638918 0
-0.0250484 0.0553096 0
-0.0229582 0.0473493 0
-0.020964 0.0400128 0
-0.0190234 0.0332958 0
-0.0171037 0.0271926 0
-0.0151784 0.021699 0
-0.0132268 0.0168135 0
-0.0112341 0.0125372 0
-0.00919535 0.00887373 0
-0.00712215 0.00582822 0
-0.00505269 0.00340764 0
-0.00306675 0.0016211 0
-0.00130598 0.000480625 0
-0.0290713 0.103404 0
-0.0277502 0.0918131 0
-0.0254207 0.0813075 0
-0.0229255 0.0716522 0
-0.0207495 0.0628757 0
-0.0188657 0.0547008 0
-0.0172254 0.0471412 0
-0.0157413 0.0401805 0
-0.0143478 0.0337989 0
-0.0130004 0.0279801 0
-0.0116683 0.0227131 0
-0.0103287 0.0179925 0
-0.00896449 0.0138173 0
-0.00756378 0.0101901 0
-0.00612324 0.00711503 0
-0.00465418 0.00459582 0
-0.00319317 0.00263357 0
-0.00181837 0.00122425 0
-0.000673327 0.000355575 0
-0.0194715 0.0839702 0
-0.0189145 0.0744291 0
-0.0169071 0.0656577 0
-0.0145837 0.0576027 0
-0.0128729 0.0502613 0
-0.011567 0.0434952 0
-0.0105089 0.0373043 0
-0.00958475 0.0316449 0
-0.00872919 0.0264801 0
-0.00790481 0.0217864 0
-0.00708813 0.0175513 0
-0.00626264 0.01377 0
-0.00541588 0.0104438 0
-0.00453917 0.00757762 0
-0.00362975 0.0051779 0
-0.00269586 0.00324941 0
-0.00176636 0.00179097 0
-0.000906512 0.00079016 0
-0.000242166 0.000214524 0
-0.011259 0.0604484 0
-0.0112692 0.0535437 0
-0.00971997 0.0468112 0
-0.00772689 0.0407252 0
-0.00650357 0.0353068 0
-0.00575337 0.0304071 0
-0.00520789 0.0259646 0
-0.00474937 0.0219198 0
-0.00432895 0.0182358 0
-0.00392341 0.0148929 0
-0.00351941 0.0118823 0
-0.00310767 0.00920234 0
-0.0026809 0.00685666 0
-0.00223363 0.00485241 0
-0.00176349 0.00319834 0
-0.00127444 0.00190159 0
-0.000783765 0.000962486 0
-0.000335379 0.00036759 0
-1.7128e-05 7.83764e-05 0
-0.00512141 0.0330683 0
-0.00495812 0.0293004 0
-0.00395569 0.0249738 0
-0.00272009 0.0213141 0
-0.00208677 0.0183446 0
-0.00180713 0.0157521 0