<?xml version="1.0"?>
<VTKFile type="UnstructuredGrid">
  <UnstructuredGrid>
  <Piece NumberOfPoints="3321"  NumberOfCells="1600">
    <Points>
      <DataArray type="Float64" NumberOfComponents="3" format="ascii">
0 0 0.1
1 0 0.1
1 0.5 0.1
0 0.5 0.1
0.025 0 0.1
0.05 0 0.1
0.075 0 0.1
0.1 0 0.1
0.125 0 0.1
0.15 0 0.1
0.175 0 0.1
0.2 0 0.1
0.225 0 0.1
0.25 0 0.1
0.275 0 0.1
0.3 0 0.1
0.325 0 0.1
0.35 0 0.1
0.375 0 0.1
0.4 0 0.1
0.425 0 0.1
0.45 0 0.1
0.475 0 0.1
0.5 0 0.1
0.525 0 0.1
0.55 0 0.1
0.575 0 0.1
0.6 0 0.1
0.625 0 0.1
0.65 0 0.1
0.675 0 0.1
0.7 0 0.1
0.725 0 0.1
0.75 0 0.1
0.775 0 0.1
0.8 0 0.1
0.825 0 0.1
0.85 0 0.1
0.875 0 0.1
0.9 0 0.1
0.925 0 0.1
0.95 0 0.1
0.975 0 0.1
0.0125 0 0.1
0.0375 0 0.1
0.0625 0 0.1
0.0875 0 0.1
0.1125 0 0.1
0.1375 0 0.1
0.1625 0 0.1
0.1875 0 0.1
0.2125 0 0.1
0.2375 0 0.1
0.2625 0 0.1
0.2875 0 0.1
0.3125 0 0.1
0.3375 0 0.1
0.3625 0 0.1
0.3875 0 0.1
0.4125 0 0.1
0.4375 0 0.1
0.4625 0 0.1
0.4875 0 0.1
0.5125 0 0.1
0.5375 0 0.1
0.5625 0 0.1
0.5875 0 0.1
0.6125 0 0.1
0.6375 0 0.1
0.6625 0 0.1
0.6875 0 0.1
0.7125 0 0.1
0.7375 0 0.1
0.7625 0 0.1
0.7875 0 0.1
0.8125 0 0.1
0.8375 0 0.1
0.8625 0 0.1
0.8875 0 0.1
0.9125 0 0.1
0.9375 0 0.1
0.9625 0 0.1
0.9875 0 0.1
1 0.025 0.1
1 0.05 0.1
1 0.075 0.1
1 0.1 0.1
1 0.125 0.1
1 0.15 0.1
1 0.175 0.1
1 0.2 0.1
1 0.225 0.1
1 0.25 0.1
1 0.275 0.1
1 0.3 0.1
1 0.325 0.1
1 0.35 0.1
1 0.375 0.1
1 0.4 0.1
1 0.425 0.1
1 0.45 0.1
1 0.475 0.1
1 0.0125 0.1
1 0.0375 0.1
1 0.0625 0.1
1 0.0875 0.1
1 0.1125 0.1
1 0.1375 0.1
1 0.1625 0.1
1 0.1875 0.1
1 0.2125 0.1
1 0.2375 0.1
1 0.2625 0.1
1 0.2875 0.1
1 0.3125 0.1
1 0.3375 0.1
1 0.3625 0.1
1 0.3875 0.1
1 0.4125 0.1
1 0.4375 0.1
1 0.4625 0.1
1 0.4875 0.1
0.975 0.5 0.1
0.95 0.5 0.1
0.925 0.5 0.1
0.9 0.5 0.1
0.875 0.5 0.1
0.85 0.5 0.1
0.825 0.5 0.1
0.8 0.5 0.1
0.775 0.5 0.1
0.75 0.5 0.1
0.725 0.5 0.1
0.7 0.5 0.1
0.675 0.5 0.1
0.65 0.5 0.1
0.625 0.5 0.1
0.6 0.5 0.1
0.575 0.5 0.1
0.55 0.5 0.1
0.525 0.5 0.1
0.5 0.5 0.1
0.475 0.5 0.1
0.45 0.5 0.1
0.425 0.5 0.1
0.4 0.5 0.1
0.375 0.5 0.1
0.35 0.5 0.1
0.325 0.5 0.1
0.3 0.5 0.1
0.275 0.5 0.1
0.25 0.5 0.1
0.225 0.5 0.1
0.2 0.5 0.1
0.175 0.5 0.1
0.15 0.5 0.1
0.125 0.5 0.1
0.1 0.5 0.1
0.075 0.5 0.1
0.05 0.5 0.1
0.025 0.5 0.1
0.9875 0.5 0.1
0.9625 0.5 0.1
0.9375 0.5 0.1
0.9125 0.5 0.1
0.8875 0.5 0.1
0.8625 0.5 0.1
0.8375 0.5 0.1
0.8125 0.5 0.1
0.7875 0.5 0.1
0.7625 0.5 0.1
0.7375 0.5 0.1
0.7125 0.5 0.1
0.6875 0.5 0.1
0.6625 0.5 0.1
0.6375 0.5 0.1
0.6125 0.5 0.1
0.5875 0.5 0.1
0.5625 0.5 0.1
0.5375 0.5 0.1
0.5125 0.5 0.1
0.4875 0.5 0.1
0.4625 0.5 0.1
0.4375 0.5 0.1
0.4125 0.5 0.1
0.3875 0.5 0.1
0.3625 0.5 0.1
0.3375 0.5 0.1
0.3125 0.5 0.1
0.2875 0.5 0.1
0.2625 0.5 0.1
0.2375 0.5 0.1
0.2125 0.5 0.1
0.1875 0.5 0.1
0.1625 0.5 0.1
0.1375 0.5 0.1
0.1125 0.5 0.1
0.0875 0.5 0.1
0.0625 0.5 0.1
0.0375 0.5 0.1
0.0125 0.5 0.1
0 0.475 0.1
0 0.45 0.1
0 0.425 0.1
0 0.4 0.1
0 0.375 0.1
0 0.35 0.1
0 0.325 0.1
0 0.3 0.1
0 0.275 0.1
0 0.25 0.1
0 0.225 0.1
0 0.2 0.1
0 0.175 0.1
0 0.15 0.1
0 0.125 0.1
0 0.1 0.1
0 0.075 0.1
0 0.05 0.1
0 0.025 0.1
0 0.4875 0.1
0 0.4625 0.1
0 0.4375 0.1
0 0.4125 0.1
0 0.3875 0.1
0 0.3625 0.1
0 0.3375 0.1
0 0.3125 0.1
0 0.2875 0.1
0 0.2625 0.1
0 0.2375 0.1
0 0.2125 0.1
0 0.1875 0.1
0 0.1625 0.1
0 0.1375 0.1
0 0.1125 0.1
0 0.0875 0.1
0 0.0625 0.1
0 0.0375 0.1
0 0.0125 0.1
0.975 0.475 0.1
0.975 0.45 0.1
0.975 0.425 0.1
0.975 0.4 0.1
0.975 0.375 0.1
0.975 0.35 0.1
0.975 0.325 0.1
0.975 0.3 0.1
0.975 0.275 0.1
0.975 0.25 0.1
0.975 0.225 0.1
0.975 0.2 0.1
0.975 0.175 0.1
0.975 0.15 0.1
0.975 0.125 0.1
0.975 0.1 0.1
0.975 0.075 0.1
0.975 0.05 0.1
0.975 0.025 0.1
0.95 0.475 0.1
0.95 0.45 0.1
0.95 0.425 0.1
0.95 0.4 0.1
0.95 0.375 0.1
0.95 0.35 0.1
0.95 0.325 0.1
0.95 0.3 0.1
0.95 0.275 0.1
0.95 0.25 0.1
0.95 0.225 0.1
0.95 0.2 0.1
0.95 0.175 0.1
0.95 0.15 0.1
0.95 0.125 0.1
0.95 0.1 0.1
0.95 0.075 0.1
0.95 0.05 0.1
0.95 0.025 0.1
0.925 0.475 0.1
0.925 0.45 0.1
0.925 0.425 0.1
0.925 0.4 0.1
0.925 0.375 0.1
0.925 0.35 0.1
0.925 0.325 0.1
0.925 0.3 0.1
0.925 0.275 0.1
0.925 0.25 0.1
0.925 0.225 0.1
0.925 0.2 0.1
0.925 0.175 0.1
0.925 0.15 0.1
0.925 0.125 0.1
0.925 0.1 0.1
0.925 0.075 0.1
0.925 0.05 0.1
0.925 0.025 0.1
0.9 0.475 0.1
0.9 0.45 0.1
0.9 0.425 0.1
0.9 0.4 0.1
0.9 0.375 0.1
0.9 0.35 0.1
0.9 0.325 0.1
0.9 0.3 0.1
0.9 0.275 0.1
0.9 0.25 0.1
0.9 0.225 0.1
0.9 0.2 0.1
0.9 0.175 0.1
0.9 0.15 0.1
0.9 0.125 0.1
0.9 0.1 0.1
0.9 0.075 0.1
0.9 0.05 0.1
0.9 0.025 0.1
0.875 0.475 0.1
0.875 0.45 0.1
0.875 0.425 0.1
0.875 0.4 0.1
0.875 0.375 0.1
0.875 0.35 0.1
0.875 0.325 0.1
0.875 0.3 0.1
0.875 0.275 0.1
0.875 0.25 0.1
0.875 0.225 0.1
0.875 0.2 0.1
0.875 0.175 0.1
0.875 0.15 0.1
0.875 0.125 0.1
0.875 0.1 0.1
0.875 0.075 0.1
0.875 0.05 0.1
0.875 0.025 0.1
0.85 0.475 0.1
0.85 0.45 0.1
0.85 0.425 0.1
0.85 0.4 0.1
0.85 0.375 0.1
0.85 0.35 0.1
0.85 0.325 0.1
0.85 0.3 0.1
0.85 0.275 0.1
0.85 0.25 0.1
0.85 0.225 0.1
0.85 0.2 0.1
0.85 0.175 0.1
0.85 0.15 0.1
0.85 0.125 0.1
0.85 0.1 0.1
0.85 0.075 0.1
0.85 0.05 0.1
0.85 0.025 0.1
0.825 0.475 0.1
0.825 0.45 0.1
0.825 0.425 0.1
0.825 0.4 0.1
0.825 0.375 0.1
0.825 0.35 0.1
0.825 0.325 0.1
0.825 0.3 0.1
0.825 0.275 0.1
0.825 0.25 0.1
0.825 0.225 0.1
0.825 0.2 0.1
0.825 0.175 0.1
0.825 0.15 0.1
0.825 0.125 0.1
0.825 0.1 0.1
0.825 0.075 0.1
0.825 0.05 0.1
0.825 0.025 0.1
0.8 0.475 0.1
0.8 0.45 0.1
0.8 0.425 0.1
0.8 0.4 0.1
0.8 0.375 0.1
0.8 0.35 0.1
0.8 0.325 0.1
0.8 0.3 0.1
0.8 0.275 0.1
0.8 0.25 0.1
0.8 0.225 0.1
0.8 0.2 0.1
0.8 0.175 0.1
0.8 0.15 0.1
0.8 0.125 0.1
0.8 0.1 0.1
0.8 0.075 0.1
0.8 0.05 0.1
0.8 0.025 0.1
0.775 0.475 0.1
0.775 0.45 0.1
0.775 0.425 0.1
0.775 0.4 0.1
0.775 0.375 0.1
0.775 0.35 0.1
0.775 0.325 0.1
0.775 0.3 0.1
0.775 0.275 0.1
0.775 0.25 0.1
0.775 0.225 0.1
0.775 0.2 0.1
0.775 0.175 0.1
0.775 0.15 0.1
0.775 0.125 0.1
0.775 0.1 0.1
0.775 0.075 0.1
0.775 0.05 0.1
0.775 0.025 0.1
0.75 0.475 0.1
0.75 0.45 0.1
0.75 0.425 0.1
0.75 0.4 0.1
0.75 0.375 0.1
0.75 0.35 0.1
0.75 0.325 0.1
0.75 0.3 0.1
0.75 0.275 0.1
0.75 0.25 0.1
0.75 0.225 0.1
0.75 0.2 0.1
0.75 0.175 0.1
0.75 0.15 0.1
0.75 0.125 0.1
0.75 0.1 0.1
0.75 0.075 0.1
0.75 0.05 0.1
0.75 0.025 0.1
0.725 0.475 0.1
0.725 0.45 0.1
0.725 0.425 0.1
0.725 0.4 0.1
0.725 0.375 0.1
0.725 0.35 0.1
0.725 0.325 0.1
0.725 0.3 0.1
0.725 0.275 0.1
0.725 0.25 0.1
0.725 0.225 0.1
0.725 0.2 0.1
0.725 0.175 0.1
0.725 0.15 0.1
0.725 0.125 0.1
0.725 0.1 0.1
0.725 0.075 0.1
0.725 0.05 0.1
0.725 0.025 0.1
0.7 0.475 0.1
0.7 0.45 0.1
0.7 0.425 0.1
0.7 0.4 0.1
0.7 0.375 0.1
0.7 0.35 0.1
0.7 0.325 0.1
0.7 0.3 0.1
0.7 0.275 0.1
0.7 0.25 0.1
0.7 0.225 0.1
0.7 0.2 0.1
0.7 0.175 0.1
0.7 0.15 0.1
0.7 0.125 0.1
0.7 0.1 0.1
0.7 0.075 0.1
0.7 0.05 0.1
0.7 0.025 0.1
0.675 0.475 0.1
0.675 0.45 0.1
0.675 0.425 0.1
0.675 0.4 0.1
0.675 0.375 0.1
0.675 0.35 0.1
0.675 0.325 0.1
0.675 0.3 0.1
0.675 0.275 0.1
0.675 0.25 0.1
0.675 0.225 0.1
0.675 0.2 0.1
0.675 0.175 0.1
0.675 0.15 0.1
0.675 0.125 0.1
0.675 0.1 0.1
0.675 0.075 0.1
0.675 0.05 0.1
0.675 0.025 0.1
0.65 0.475 0.1
0.65 0.45 0.1
0.65 0.425 0.1
0.65 0.4 0.1
0.65 0.375 0.1
0.65 0.35 0.1
0.65 0.325 0.1
0.65 0.3 0.1
0.65 0.275 0.1
0.65 0.25 0.1
0.65 0.225 0.1
0.65 0.2 0.1
0.65 0.175 0.1
0.65 0.15 0.1
0.65 0.125 0.1
0.65 0.1 0.1
0.65 0.075 0.1
0.65 0.05 0.1
0.65 0.025 0.1
0.625 0.475 0.1
0.625 0.45 0.1
0.625 0.425 0.1
0.625 0.4 0.1
0.625 0.375 0.1
0.625 0.35 0.1
0.625 0.325 0.1
0.625 0.3 0.1
0.625 0.275 0.1
0.625 0.25 0.1
0.625 0.225 0.1
0.625 0.2 0.1
0.625 0.175 0.1
0.625 0.15 0.1
0.625 0.125 0.1
0.625 0.1 0.1
0.625 0.075 0.1
0.625 0.05 0.1
0.625 0.025 0.1
0.6 0.475 0.1
0.6 0.45 0.1
0.6 0.425 0.1
0.6 0.4 0.1
0.6 0.375 0.1
0.6 0.35 0.1
0.6 0.325 0.1
0.6 0.3 0.1
0.6 0.275 0.1
0.6 0.25 0.1
0.6 0.225 0.1
0.6 0.2 0.1
0.6 0.175 0.1
0.6 0.15 0.1
0.6 0.125 0.1
0.6 0.1 0.1
0.6 0.075 0.1
0.6 0.05 0.1
0.6 0.025 0.1
0.575 0.475 0.1
0.575 0.45 0.1
0.575 0.425 0.1
0.575 0.4 0.1
0.575 0.375 0.1
0.575 0.35 0.1
0.575 0.325 0.1
0.575 0.3 0.1
0.575 0.275 0.1
0.575 0.25 0.1
0.575 0.225 0.1
0.575 0.2 0.1
0.575 0.175 0.1
0.575 0.15 0.1
0.575 0.125 0.1
0.575 0.1 0.1
0.575 0.075 0.1
0.575 0.05 0.1
0.575 0.025 0.1
0.55 0.475 0.1
0.55 0.45 0.1
0.55 0.425 0.1
0.55 0.4 0.1
0.55 0.375 0.1
0.55 0.35 0.1
0.55 0.325 0.1
0.55 0.3 0.1
0.55 0.275 0.1
0.55 0.25 0.1
0.55 0.225 0.1
0.55 0.2 0.1
0.55 0.175 0.1
0.55 0.15 0.1
0.55 0.125 0.1
0.55 0.1 0.1
0.55 0.075 0.1
0.55 0.05 0.1
0.55 0.025 0.1
0.525 0.475 0.1
0.525 0.45 0.1
0.525 0.425 0.1
0.525 0.4 0.1
0.525 0.375 0.1
0.525 0.35 0.1
0.525 0.325 0.1
0.525 0.3 0.1
0.525 0.275 0.1
0.525 0.25 0.1
0.525 0.225 0.1
0.525 0.2 0.1
0.525 0.175 0.1
0.525 0.15 0.1
0.525 0.125 0.1
0.525 0.1 0.1
0.525 0.075 0.1
0.525 0.05 0.1
0.525 0.025 0.1
0.5 0.475 0.1
0.5 0.45 0.1
0.5 0.425 0.1
0.5 0.4 0.1
0.5 0.375 0.1
0.5 0.35 0.1
0.5 0.325 0.1
0.5 0.3 0.1
0.5 0.275 0.1
0.5 0.25 0.1
0.5 0.225 0.1
0.5 0.2 0.1
0.5 0.175 0.1
0.5 0.15 0.1
0.5 0.125 0.1
0.5 0.1 0.1
0.5 0.075 0.1
0.5 0.05 0.1
0.5 0.025 0.1
0.475 0.475 0.1
0.475 0.45 0.1
0.475 0.425 0.1
0.475 0.4 0.1
0.475 0.375 0.1
0.475 0.35 0.1
0.475 0.325 0.1
0.475 0.3 0.1
0.475 0.275 0.1
0.475 0.25 0.1
0.475 0.225 0.1
0.475 0.2 0.1
0.475 0.175 0.1
0.475 0.15 0.1
0.475 0.125 0.1
0.475 0.1 0.1
0.475 0.075 0.1
0.475 0.05 0.1
0.475 0.025 0.1
0.45 0.475 0.1
0.45 0.45 0.1
0.45 0.425 0.1
0.45 0.4 0.1
0.45 0.375 0.1
0.45 0.35 0.1
0.45 0.325 0.1
0.45 0.3 0.1
0.45 0.275 0.1
0.45 0.25 0.1
0.45 0.225 0.1
0.45 0.2 0.1
0.45 0.175 0.1
0.45 0.15 0.1
0.45 0.125 0.1
0.45 0.1 0.1
0.45 0.075 0.1
0.45 0.05 0.1
0.45 0.025 0.1
0.425 0.475 0.1
0.425 0.45 0.1
0.425 0.425 0.1
0.425 0.4 0.1
0.425 0.375 0.1
0.425 0.35 0.1
0.425 0.325 0.1
0.425 0.3 0.1
0.425 0.275 0.1
0.425 0.25 0.1
0.425 0.225 0.1
0.425 0.2 0.1
0.425 0.175 0.1
0.425 0.15 0.1
0.425 0.125 0.1
0.425 0.1 0.1
0.425 0.075 0.1
0.425 0.05 0.1
0.425 0.025 0.1
0.4 0.475 0.1
0.4 0.45 0.1
0.4 0.425 0.1
0.4 0.4 0.1
0.4 0.375 0.1
0.4 0.35 0.1
0.4 0.325 0.1
0.4 0.3 0.1
0.4 0.275 0.1
0.4 0.25 0.1
0.4 0.225 0.1
0.4 0.2 0.1
0.4 0.175 0.1
0.4 0.15 0.1
0.4 0.125 0.1
0.4 0.1 0.1
0.4 0.075 0.1
0.4 0.05 0.1
0.4 0.025 0.1
0.375 0.475 0.1
0.375 0.45 0.1
0.375 0.425 0.1
0.375 0.4 0.1
0.375 0.375 0.1
[...]
    <PointData>
      <DataArray type="Float64" NumberOfComponents="3" Name="Velocity" format="ascii">
0 0 0
0 0 0
0 0 0
0 0 0
0 0 0
0 0 0
0 0 0
0 0 0
0 0 0
0 0 0
0 0 0
0 0 0
0 0 0
0 0 0
0 0 0
0 0 0
0 0 0
0 0 0
0 0 0
0 0 0
0 0 0
0 0 0
0 0 0
0 0 0
0 0 0
0 0 0
0 0 0
0 0 0
0 0 0
0 0 0
0 0 0
0 0 0
0 0 0
0 0 0
0 0 0
0 0 0
0 0 0
0 0 0
0 0 0
0 0 0
0 0 0
0 0 0
0 0 0
0 0 0
0 0 0
0 0 0
0 0 0
0 0 0
0 0 0
0 0 0
0 0 0
0 0 0
0 0 0
0 0 0
0 0 0
0 0 0
0 0 0
0 0 0
0 0 0
0 0 0
0 0 0
0 0 0
0 0 0
0 0 0
0 0 0
0 0 0
0 0 0
0 0 0
0 0 0
0 0 0
0 0 0
0 0 0
0 0 0
0 0 0
0 0 0
0 0 0
0 0 0
0 0 0
0 0 0
0 0 0
0 0 0
0 0 0
0 0 0
0 0 0
0 0 0
0 0 0
0 0 0
0 0 0
0 0 0
0 0 0
0 0 0
0 0 0
0 0 0
0 0 0
0 0 0
0 0 0
0 0 0
0 0 0
0 0 0
0 0 0
0 0 0
0 0 0
0 0 0
0 0 0
0 0 0
0 0 0
0 0 0
0 0 0
0 0 0
0 0 0
0 0 0
0 0 0
0 0 0
0 0 0
0 0 0
0 0 0
0 0 0
0 0 0
0 0 0
0 0 0
0 0 0
0 0 0
-0.0816803 0.0453988 0
-0.0522422 0.0307184 0
-0.0608001 -0.0238958 0
-0.0859445 -0.0268685 0
-0.0947393 -0.0151099 0
-0.0948428 -0.00883116 0
-0.102367 -0.00551243 0
-0.116014 -0.0109729 0
-0.126084 -0.0181422 0
-0.130463 -0.0186141 0
-0.133895 -0.0144552 0
-0.138698 -0.0100336 0
-0.144806 -0.0086304 0
-0.149284 -0.00923637 0
-0.152007 -0.008605 0
-0.154199 -0.00670243 0
-0.155993 -0.00443539 0
-0.157122 -0.00237534 0
-0.157594 -0.000732696 0
-0.157635 0.000588381 0
-0.157156 0.00147959 0
-0.155837 0.00256751 0
-0.153766 0.00423003 0
-0.151358 0.00662411 0
-0.149158 0.00868159 0
-0.145259 0.00854776 0
-0.13904 0.00694849 0
-0.132001 0.00584075 0
-0.126962 0.00893566 0
-0.123687 0.0139749 0
-0.118344 0.0161925 0
-0.107636 0.00989624 0
-0.0948421 -0.00191992 0
-0.0862202 -0.00347395 0
-0.0833933 0.0124217 0
-0.0767355 0.0282785 0
-0.0532979 0.0164684 0
-0.0393086 -0.0334423 0
-0.0836027 -0.0595968 0
-0.0937915 -0.0360019 0
-0.0632664 0.0508718 0
-0.0520103 0.00110112 0
-0.0746448 -0.027623 0
-0.091838 -0.0221958 0
-0.0948862 -0.0113088 0
-0.0972854 -0.0049101 0
-0.109013 -0.00765257 0
-0.121701 -0.0153444 0
-0.128516 -0.0192019 0
-0.132027 -0.0162374 0
-0.135969 -0.0114692 0
-0.141687 -0.00882119 0
-0.147169 -0.00892836 0
-0.150632 -0.00898776 0
-0.153 -0.00745796 0
-0.155043 -0.00530284 0
-0.156524 -0.00316509 0
-0.15731 -0.00139991 0
-0.157535 0.000120291 0
-0.157376 0.00116116 0
-0.156478 0.00211877 0
-0.15478 0.00347378 0
-0.15252 0.00549991 0
-0.150245 0.00780198 0
-0.147443 0.00854516 0
-0.142251 0.00781529 0
-0.135373 0.00620951 0
-0.129176 0.0072479 0
-0.12539 0.0117552 0
-0.121474 0.015165 0
-0.113447 0.0138052 0
-0.100928 0.00334418 0
-0.0899221 -0.00433254 0
-0.0846331 0.00433699 0
-0.081715 0.0213146 0
-0.0668567 0.0244445 0
-0.0392812 -0.00411773 0
-0.0611026 -0.0594837 0
-0.0718932 0.0151882 0
0 0 0
0 0 0
0 0 0
0 0 0
0 0 0
0 0 0
0 0 0
0 0 0
0 0 0
0 0 0
0 0 0
0 0 0
0 0 0
0 0 0
0 0 0
0 0 0
0 0 0
0 0 0
0 0 0
0 0 0
0 0 0
0 0 0
0 0 0
0 0 0
0 0 0
0 0 0
0 0 0
0 0 0
0 0 0
0 0 0
0 0 0
0 0 0
0 0 0
0 0 0
0 0 0
0 0 0
0 0 0
0 0 0
0 0 0
-0.0601876 0.0221055 0
-0.0494814 0.0194964 0
-0.0699565 0.0113625 0
-0.0829703 0.00359286 0
-0.0637879 0.00777514 0
-0.0656708 0.00973839 0
-0.0662836 0.00932154 0
-0.0662908 0.00814506 0
-0.0662692 0.00694111 0
-0.0662909 0.00587808 0
-0.0663287 0.00490333 0
-0.0663824 0.00398345 0
-0.0664454 0.00314583 0
-0.0665058 0.00241194 0
-0.0665622 0.00175967 0
-0.0666101 0.00117428 0
-0.0666428 0.000644613 0
-0.0666636 0.000186494 0
-0.0666515 -0.000110022 0
-0.0468718 0.0255135 0
-0.0398225 0.030234 0
-0.0577678 0.0277087 0
-0.0828377 0.00821003 0
-0.0749494 0.0111547 0
-0.0687025 0.0155673 0
-0.0659599 0.0148652 0
-0.065019 0.0128947 0
-0.0648008 0.0109859 0
-0.0648513 0.00931732 0
-0.0650141 0.00779355 0
-0.0651956 0.00635324 0
-0.065376 0.00503685 0
-0.0655518 0.0038716 0
-0.0657188 0.00283809 0
-0.0658658 0.00192454 0
-0.065998 0.00112376 0
-0.0661493 0.000476179 0
-0.0664224 8.92633e-05 0
-0.0546611 0.00960647 0
-0.044638 0.0207852 0
-0.0543049 0.0297746 0
-0.0770429 0.0378288 0
-0.0759493 0.0292249 0
-0.0677995 0.0223841 0
-0.0641793 0.0183756 0
-0.063041 0.0154363 0
-0.0628638 0.0131242 0
-0.0630401 0.0111531 0
-0.0633455 0.00936588 0
-0.0636811 0.00768583 0
-0.0640123 0.00613155 0
-0.0643345 0.00472905 0
-0.0646408 0.00348246 0
-0.0649269 0.00238817 0
-0.0652076 0.00145072 0
-0.0655592 0.000698547 0
-0.0661259 0.000207233 0
-0.0675708 -0.00313858 0
-0.0566988 0.0132867 0
-0.065214 0.0274371 0
-0.0791612 0.0402887 0
-0.0664406 0.0314756 0
-0.0624987 0.0242289 0
-0.0609388 0.0194984 0
-0.060558 0.0163348 0
-0.060715 0.0139981 0
-0.0610858 0.0120183 0
-0.0615264 0.0101854 0
-0.0619983 0.00843259 0
-0.0624801 0.00678078 0
-0.062959 0.00526269 0
-0.0634239 0.00389767 0
-0.0638709 0.00269699 0
-0.0643266 0.00167 0
-0.0648899 0.000838183 0
-0.0657389 0.000267334 0
-0.0806017 0.0014201 0
-0.0716293 0.0149624 0
-0.0745229 0.0220562 0
-0.0831467 0.0229282 0
-0.0626044 0.0205108 0
-0.0591286 0.0200252 0
-0.0584993 0.0180066 0
-0.0585278 0.015922 0
-0.0588074 0.0140706 0
-0.05921 0.0123262 0
-0.0596996 0.010591 0
-0.0602557 0.0088637 0
-0.0608578 0.00719206 0
-0.0614827 0.00562205 0
-0.0621081 0.00418842 0
-0.062725 0.00291554 0
-0.0633671 0.00182259 0
-0.0641513 0.000928711 0
-0.0652918 0.000301226 0
-0.0897486 0.00842605 0
-0.0786956 0.0154299 0
-0.0765647 0.0158971 0
-0.0832477 0.012323 0
-0.0668036 0.0132405 0
-0.0604531 0.0158005 0
-0.0581879 0.015941 0
-0.0574311 0.0150213 0
-0.0573178 0.0137736 0
-0.0575303 0.0123342 0
-0.0579491 0.0107517 0
-0.0585185 0.00909612 0
-0.0591971 0.00744681 0
-0.0599431 0.00586336 0
-0.0607177 0.0043918 0
-0.0615018 0.00306944 0
-0.0623279 0.00192646 0
-0.0633331 0.000992156 0
-0.0647932 0.000324363 0
-0.0934419 0.00850582 0
-0.0778139 0.0124497 0
-0.0752861 0.0123334 0
-0.0833185 0.0129455 0
-0.0722606 0.0137802 0
-0.0634997 0.0149271 0
-0.0590093 0.0149445 0
-0.0569702 0.0143389 0
-0.0561784 0.0133985 0
-0.0560464 0.0121827 0
-0.0563031 0.0107433 0
-0.0568238 0.00917266 0
-0.0575364 0.00756673 0
-0.0583745 0.00599451 0
-0.0592812 0.00450945 0
-0.0602241 0.0031607 0
-0.0612344 0.00199046 0
-0.062473 0.00102931 0
-0.0642677 0.000335851 0
-0.0967412 0.00195892 0
-0.0782739 0.0103644 0
-0.0761291 0.0141665 0
-0.086892 0.0185983 0
-0.074753 0.0169996 0
-0.0651805 0.0158377 0
-0.0595501 0.0148308 0
-0.0565887 0.0139541 0
-0.0551938 0.0130245 0
-0.0546984 0.0119104 0
-0.0547567 0.0105832 0
-0.0551938 0.00909773 0
-0.0559084 0.00754902 0
-0.0568126 0.00600935 0
-0.0578325 0.00453367 0
-0.0589234 0.00318357 0
-0.0601154 0.00201071 0
-0.0615876 0.00104389 0
-0.0637259 0.000339686 0
-0.103343 -0.00270288 0
-0.0838987 0.00953558 0
-0.0804625 0.0152567 0
-0.0907414 0.0201941 0
-0.0747722 0.017646 0
-0.0651641 0.0159826 0
-0.059374 0.0145827 0
-0.0560357 0.0135163 0
-0.0542463 0.0125531 0
-0.0534436 0.0114992 0
-0.0533053 0.0102649 0
-0.053644 0.0088673 0
-0.0543403 0.00738931 0
-0.055293 0.00590092 0
-0.0564112 0.00446092 0
-0.0576378 0.00313426 0
-0.0590075 0.00198238 0
-0.0607191 0.00103429 0
-0.0632023 0.000334852 0
-0.111032 -0.00334633 0
-0.0912167 0.00901969 0
-0.0861838 0.0142654 0
-0.0937558 0.017368 0
-0.074965 0.0153925 0
-0.0649293 0.0146301 0
-0.0590123 0.0136672 0
-0.0554311 0.0127623 0
-0.0533441 0.0118935 0
-0.0522804 0.0109218 0
-0.0519548 0.00978313 0
-0.0521899 0.0084831 0
-0.0528564 0.00709002 0
-0.0538428 0.00567254 0
-0.0550453 0.00429386 0
-0.0563964 0.00301812 0
-0.0579341 0.00190737 0
-0.059878 0.000999916 0
-0.0626946 0.000323799 0
-0.117593 -0.000634786 0
-0.0964408 0.00842925 0
-0.0907178 0.012133 0
-0.0957998 0.0135589 0
-0.0763908 0.0126057 0
-0.0654243 0.0126649 0
-0.0589387 0.0123072 0
-0.0549548 0.011737 0
-0.0525448 0.0110402 0
-0.0512246 0.010184 0
-0.050716 0.00915125 0
-0.0508441 0.00795872 0
-0.0514732 0.00666404 0
-0.0524824 0.0053373 0
-0.0537562 0.00404336 0
-0.0552218 0.00284201 0
-0.0569201 0.00179128 0
-0.0590909 0.000936721 0
-0.0622396 0.000304712 0
-0.121986 0.00085648 0
-0.0987829 0.00732642 0
-0.0932128 0.00993746 0
-0.0976854 0.0107629 0
-0.0783761 0.010593 0
-0.0664338 0.0109942 0
-0.0591353 0.0109389 0
-0.05463 0.0105966 0
-0.0518628 0.0100556 0
-0.0502843 0.00931991 0
-0.049596 0.0083971 0
-0.049616 0.00731891 0
-0.0502018 0.00613416 0
-0.0512244 0.00491473 0
-0.0525589 0.00372511 0
-0.054129 0.00261586 0
-0.055976 0.00164157 0
-0.0583556 0.000852738 0
-0.0618018 0.000275969 0
-0.124963 0.000579642 0
-0.100418 0.00647593 0
-0.0946554 0.00915309 0
-0.100016 0.00992803 0
-0.0800825 0.00948529 0
-0.0673403 0.00976261 0
-0.0593626 0.00972089 0
-0.0543701 0.00944311 0
-0.0512687 0.00899676 0
-0.0494516 0.00836675 0
-0.0485968 0.00755255 0
-0.0485133 0.00659239 0
-0.049053 0.0055264 0
-0.050082 0.00442656 0
-0.0514687 0.00335413 0
-0.0531317 0.002353 0
-0.0551142 0.00147057 0
-0.057684 0.000756697 0
-0.0614026 0.000242118 0
-0.127973 -0.000389925 0
-0.10267 0.00572457 0
-0.0962686 0.00858331 0
-0.102223 0.00966942 0
-0.0811144 0.00865824 0
-0.0678151 0.00863724 0
-0.0594404 0.00855463 0
-0.0541079 0.00827636 0
-0.0507363 0.00788687 0
-0.0487164 0.00735077 0
-0.0477159 0.00664539 0
-0.0475386 0.00580537 0
-0.0480347 0.00486501 0
-0.0490652 0.00389379 0
-0.0504958 0.00294722 0
-0.0522425 0.00206296 0
-0.0543471 0.0012833 0
-0.0570883 0.000655573 0
-0.0610499 0.000208476 0
-0.131154 -0.000830584 0
-0.105305 0.0050335 0
-0.0984035 0.00803788 0
-0.103788 0.00873368 0
-0.081795 0.00753025 0
-0.0680798 0.00739417 0
-0.0594232 0.0073023 0
-0.0538493 0.00706966 0
-0.0502643 0.00673721 0
-0.0480761 0.00629039 0
-0.0469523 0.00569668 0
-0.0466932 0.00497978 0
-0.0471506 0.00416938 0
-0.0481822 0.00333162 0
-0.049651 0.00251602 0
-0.0514715 0.00175657 0
-0.0536835 0.00108656 0
-0.0565757 0.000548889 0
-0.0607521 0.000175614 0
-0.133727 -9.62933e-05 0
-0.107409 0.0044962 0
-0.100451 0.00691365 0
-0.104857 0.00716725 0
-0.0824363 0.00618677 0
-0.0683555 0.00604612 0
-0.0594166 0.00599193 0
-0.0536219 0.0058266 0
-0.0498572 0.00555958 0
-0.0475298 0.00519914 0
-0.0463058 0.00472088 0
-0.0459796 0.0041305 0
-0.0464057 0.00345242 0
-0.0474401 0.00275094 0
-0.048942 0.00207034 0
-0.0508252 0.00143692 0
-0.0531317 0.00088328 0
-0.0561499 0.000441484 0
-0.0605043 0.000141568 0
-0.135421 0.000786763 0
-0.108656 0.00396027 0
-0.101973 0.00567902 0
-0.10575 0.00557802 0
-0.0830642 0.00483626 0
-0.0686429 0.00472296 0
-0.0594233 0.00468647 0
-0.0534288 0.00457617 0
-0.049513 0.00436857 0
-0.0470754 0.00408923 0
-0.0457736 0.0037264 0
-0.045397 0.00326579 0
-0.0458017 0.00272036 0
-0.0468418 0.00215589 0
-0.0483768 0.00161225 0
-0.0503124 0.00111129 0
-0.052692 0.000677288 0
-0.0558124 0.000334605 0
-0.0603078 0.000107596 0
-0.136256 0.00136466 0
-0.109137 0.00348014 0
-0.102911 0.00445243 0
-0.106637 0.0042671 0
-0.0835095 0.00365266 0
-0.068817 0.00346671 0
-0.0593929 0.00340957 0
-0.0532523 0.00333165 0
-0.0492262 0.00317376 0
-0.0467076 0.00296479 0
-0.0453549 0.0027153 0
-0.0449471 0.00238738 0
-0.0453435 0.00197251 0
-0.0463931 0.00154713 0
-0.0479546 0.00114399 0
-0.0499341 0.000778831 0
-0.0523737 0.000466853 0
-0.0555716 0.000227097 0
-0.0601679 7.64981e-05 0
-0.136435 0.00175677 0
-0.109112 0.00317174 0
-0.103391 0.00382956 0
-0.107104 0.00336702 0
-0.0836859 0.00252776 0
-0.0688513 0.00224481 0
-0.0593177 0.00215077 0
-0.0530837 0.00208885 0
-0.0489959 0.00197164 0
-0.0464273 0.00182678 0
-0.0450469 0.00168382 0
-0.0446314 0.0014868 0
-0.0450359 0.00120512 0
-0.0460988 0.000924031 0
-0.0476825 0.000665096 0
-0.049693 0.000438793 0
-0.0521717 0.000255994 0
-0.0554195 0.000122374 0
-0.0600827 4.20918e-05 0
-0.136295 0.0020904 0
-0.108762 0.00281873 0
-0.103438 0.00320906 0
-0.106957 0.00241336 0
-0.083592 0.00138736 0
-0.0687919 0.00103235 0
-0.0592379 0.00091304 0
-0.0529714 0.000839309 0
-0.0488572 0.0007586 0
-0.0462603 0.000683878 0
-0.0448451 0.000632627 0
-0.0444484 0.000548452 0
-0.0448814 0.000412239 0
-0.0459626 0.000282354 0
-0.0475646 0.000173879 0
-0.0495938 9.12647e-05 0
-0.052095 3.83982e-05 0
-0.055371 1.11392e-05 0
-0.0600632 9.30587e-06 0
-0.13586 0.00209789 0
-0.108347 0.00229607 0
-0.103197 0.00240529 0
-0.106285 0.00133757 0
-0.0833352 0.000216034 0
-0.0686794 -0.000176122 0
-0.059187 -0.000334293 0
-0.0529611 -0.000418002 0
-0.0488551 -0.000456411 0
-0.0462622 -0.000458276 0
-0.0448555 -0.000419493 0
-0.0444574 -0.00043727 0
-0.0448985 -0.000410683 0
-0.0459944 -0.000376124 0
-0.0476021 -0.000331273 0
-0.0496377 -0.000265432 0
-0.0521417 -0.000183747 0
-0.0554131 -0.000102374 0
-0.0600937 -2.6028e-05 0
-0.134957 0.00216461 0
-0.107867 0.00183282 0
-0.102657 0.00162405 0
-0.105235 0.000301102 0
-0.0829194 -0.000891507 0
-0.0684766 -0.00136532 0
-0.0591145 -0.00160169 0
-0.0529794 -0.0017002 0
-0.0489522 -0.00169842 0
-0.0464219 -0.00162398 0
-0.0450644 -0.00150508 0
-0.0446867 -0.00140518 0
-0.0451111 -0.00124332 0
-0.0462004 -0.00104942 0
-0.0478036 -0.000845908 0
-0.0498261 -0.000630884 0
-0.052309 -0.000410454 0
-0.0555476 -0.000216903 0
-0.0601752 -6.06408e-05 0
-0.133775 0.00265577 0
-0.107129 0.00145947 0
-0.101562 0.000439584 0
-0.103997 -0.000767398 0
-0.0822433 -0.00194867 0
-0.068134 -0.00257644 0
-0.058986 -0.00290596 0
-0.0530086 -0.00302967 0
-0.0491115 -0.00299183 0
-0.0466886 -0.00283748 0
-0.0454142 -0.00262063 0
-0.0450761 -0.00237334 0
-0.0455109 -0.00206811 0
-0.0465891 -0.00172566 0
-0.0481722 -0.0013663 0
-0.0501642 -0.000998212 0
-0.0526037 -0.000640126 0
-0.0557811 -0.000331222 0
-0.0603163 -9.84326e-05 0
-0.131932 0.00347979 0
-0.105435 0.000712536 0
-0.0994336 -0.00150801 0
-0.102562 -0.00244325 0
-0.0813735 -0.00328095 0
-0.0676664 -0.00389587 0
-0.0588015 -0.0042806 0
-0.0530404 -0.00442122 0
-0.0493232 -0.00434479 0
-0.0470464 -0.00410385 0
-0.0458811 -0.00376782 0
-0.0456108 -0.00335873 0
-0.0460779 -0.00289302 0
-0.0471532 -0.00239755 0
-0.0487088 -0.00188323 0
-0.0506555 -0.00136692 0
-0.053033 -0.000873364 0
-0.0561235 -0.000449236 0
-0.0605247 -0.000134796 0
-0.128952 0.00376479 0
-0.102794 -0.000281959 0
-0.0967231 -0.00331388 0
-0.10134 -0.00422409 0
-0.0805398 -0.00472349 0
-0.0671572 -0.00530593 0
-0.0585784 -0.00573067 0
-0.053077 -0.00588037 0
-0.0495842 -0.00575647 0
-0.0474922 -0.00541913 0
-0.046463 -0.00494403 0
-0.0462809 -0.00436253 0
-0.0467971 -0.00372385 0
-0.047879 -0.00306424 0
-0.0494043 -0.00239446 0
-0.0512931 -0.00173055 0
-0.0535856 -0.00110292 0
-0.0565554 -0.000565021 0
-0.0607831 -0.000171979 0
-0.125112 0.00318379 0
-0.0997709 -0.00120801 0
-0.0944045 -0.00385919 0
-0.100513 -0.00511707 0
-0.0797777 -0.00593051 0
-0.0665858 -0.00668171 0
-0.0583004 -0.00723062 0
-0.0531136 -0.00740377 0
-0.0499008 -0.00722211 0
-0.0480325 -0.0067711 0
-0.0471647 -0.00613767 0
-0.047088 -0.00537476 0
-0.0476609 -0.00455453 0
-0.048753 -0.00372112 0
-0.0502449 -0.00289098 0
-0.0520649 -0.00208398 0
-0.0542566 -0.00132578 0
-0.0570803 -0.000679984 0
-0.0610987 -0.000206533 0
-0.121483 0.00163771 0
-0.0972002 -0.00201265 0
-0.0932306 -0.00409603 0
-0.0988304 -0.00543322 0
-0.0786024 -0.00685002 0
-0.0657576 -0.00805227 0
-0.0579208 -0.00880754 0
-0.0531564 -0.00899739 0
-0.0502886 -0.00873024 0
-0.0486807 -0.00813861 0
-0.0479935 -0.00732637 0
-0.0480326 -0.00637432 0
-0.048665 -0.00536736 0
-0.0497654 -0.00435687 0
-0.0512201 -0.00336715 0
-0.0529617 -0.00241868 0
-0.055033 -0.00153512 0
-0.0576894 -0.000787904 0
-0.0614612 -0.000241166 0
-0.118749 0.000974324 0
-0.0951234 -0.00324396 0
-0.0917107 -0.00590746 0
-0.0967173 -0.00639421 0
-0.0767754 -0.00814462 0
-0.0646201 -0.00973413 0
-0.0574789 -0.0105697 0
-0.0532604 -0.010676 0
-0.0507903 -0.0102579 0
-0.0494616 -0.00948366 0
-0.0489624 -0.0084743 0
-0.0491182 -0.00732906 0
-0.0498061 -0.00613584 0
-0.0509081 -0.0049515 0
-0.0523164 -0.00380714 0
-0.0539676 -0.00272516 0
-0.0559063 -0.0017285 0
-0.0583735 -0.000887361 0
-0.0618689 -0.000272565 0
-0.115249 0.00260217 0
-0.0914463 -0.00470365 0
-0.088977 -0.00957573 0
-0.0950669 -0.00940585 0
-0.0746672 -0.0107775 0
-0.0635119 -0.0120461 0
-0.0571951 -0.0125779 0
-0.0535448 -0.0124067 0
-0.0514626 -0.0117459 0
-0.0504023 -0.0107503 0
-0.0500831 -0.00953325 0
-0.0503472 -0.00819753 0
-0.05108 -0.0068255 0
-0.0521709 -0.00547746 0
-0.0535201 -0.00419227 0
-0.0550689 -0.00299108 0
-0.0568571 -0.00189318 0
-0.0591154 -0.000971584 0
-0.0623092 -0.000302078 0
-0.108751 0.0048486 0
-0.0850511 -0.00606987 0
-0.0851541 -0.014177 0
-0.0935339 -0.0148377 0
-0.073357 -0.0147866 0
-0.0630891 -0.0147935 0
-0.0573708 -0.0146208 0
-0.0541222 -0.0140378 0
-0.0523479 -0.0130922 0
-0.05152 -0.0118658 0
-0.0513608 -0.0104464 0
-0.0517173 -0.00893324 0
-0.0524793 -0.00739868 0
-0.0535434 -0.00590651 0
-0.0548181 -0.00450038 0
-0.0562496 -0.00320017 0
-0.0578763 -0.00202273 0
-0.05991 -0.00104077 0
-0.0627801 -0.000322475 0
-0.0994502 0.00398559 0
-0.0770652 -0.00826959 0
-0.0798585 -0.0166614 0
-0.0914103 -0.019096 0
-0.0734784 -0.0179601 0
-0.0636011 -0.0169084 0
-0.0580266 -0.016203 0
-0.054978 -0.0153379 0
-0.0534344 -0.0141806 0
-0.0528071 -0.0127567 0
-0.0527886 -0.0111598 0
-0.0532187 -0.00949162 0
-0.0539897 -0.00781928 0
-0.0550084 -0.00621074 0
-0.0561921 -0.00471146 0
-0.0574923 -0.00333862 0
-0.0589447 -0.00210603 0
-0.060741 -0.00107922 0
-0.0632715 -0.000334788 0
-0.0906809 -0.00188918 0
-0.0709983 -0.0105056 0
-0.0750926 -0.0154692 0
-0.0871909 -0.0189425 0
-0.0740582 -0.0176959 0
-0.0643135 -0.0172255 0
-0.0587473 -0.0169458 0
-0.0559384 -0.0161752 0
-0.0546612 -0.0149424 0
-0.0542405 -0.0133759 0
-0.0543517 -0.011635 0
-0.0548356 -0.00983883 0
-0.0555929 -0.0080601 0
-0.0565451 -0.00637014 0
-0.0576206 -0.00481104 0
-0.0587773 -0.00339702 0
-0.0600494 -0.00213927 0
-0.0616094 -0.00109529 0
-0.0637999 -0.000338951 0
-0.087187 -0.0101448 0
-0.0699028 -0.0144462 0
-0.073795 -0.0151367 0
-0.0831644 -0.0134916 0
-0.073003 -0.013659 0
-0.0638834 -0.0159997 0
-0.0590421 -0.0170721 0
-0.0568535 -0.0166647 0
-0.0559923 -0.0154026 0
-0.0558102 -0.0137145 0
-0.0560375 -0.011853 0
-0.0565488 -0.00995642 0
-0.0572666 -0.00810786 0
-0.0581303 -0.00637544 0
-0.0590797 -0.0047937 0
-0.0600813 -0.00337386 0
-0.0611679 -0.00212277 0
-0.0624893 -0.00108767 0
-0.0643313 -0.000338477 0
-0.0855853 -0.0111641 0
-0.0705528 -0.0176963 0
-0.0764523 -0.0171034 0
-0.0806187 -0.00876664 0
-0.0679557 -0.0113934 0
-0.0616373 -0.0158956 0
-0.0589687 -0.0175124 0
-0.0578713 -0.0170699 0
-0.0575053 -0.0156244 0
-0.0575371 -0.0137726 0
-0.0578345 -0.0118028 0
-0.058333 -0.00984117 0
-0.0589836 -0.00796476 0
-0.0597367 -0.00623055 0
-0.060543 -0.0046637 0
-0.0613773 -0.00327228 0
-0.0622723 -0.00205896 0
-0.0633547 -0.00105896 0
-0.064858 -0.000329302 0
-0.0791875 -0.00253682 0
-0.0690819 -0.0184044 0
-0.0790908 -0.0240119 0
-0.0787667 -0.0186371 0
-0.06208 -0.0187794 0
-0.0600745 -0.0193375 0
-0.0596957 -0.0188314 0
-0.0594204 -0.0174138 0
-0.0593267 -0.0155542 0
-0.0594322 -0.0135075 0
-0.0597209 -0.0114655 0
-0.0601604 -0.00949209 0
-0.0607127 -0.00763942 0
-0.0613344 -0.00594542 0
-0.0619832 -0.004429 0
-0.0626403 -0.00309655 0
-0.0633387 -0.00194779 0
-0.0641882 -0.00100467 0
-0.0653604 -0.000312266 0
-0.0644926 0.00391769 0
-0.0616401 -0.0175246 0
-0.0721237 -0.0300561 0
-0.0743465 -0.0384855 0
-0.0638027 -0.0309643 0
-0.063064 -0.0234618 0
-0.0623021 -0.0196972 0
-0.0616966 -0.0171545 0
-0.0614243 -0.0149487 0
-0.0614337 -0.0128146 0
-0.0616398 -0.0107948 0
-0.0619813 -0.00888908 0
-0.0624106 -0.00712271 0
-0.0628855 -0.0055178 0
-0.0633679 -0.00408774 0
-0.0638414 -0.00284209 0
-0.0643388 -0.00178364 0
-0.0649509 -0.000917485 0
-0.0658171 -0.000278848 0
-0.0504767 -0.00856084 0
-0.0556954 -0.0210674 0
-0.0610513 -0.0293606 0
-0.0663221 -0.037085 0
-0.0740971 -0.0276681 0
-0.0690685 -0.0210661 0
-0.0656566 -0.0178071 0
-0.0641022 -0.0155303 0
-0.0635155 -0.0134806 0
-0.0633869 -0.0115208 0
-0.0634915 -0.00967231 0
-0.0637192 -0.00794331 0
-0.064012 -0.00634856 0
-0.0643366 -0.00490127 0
-0.0646556 -0.00360572 0
-0.0649506 -0.00248037 0
-0.0652512 -0.00153805 0
-0.065639 -0.000776577 0
-0.0662196 -0.000223188 0
-0.0469319 -0.0254141 0
-0.0537476 -0.0249728 0
-0.0632567 -0.0224558 0
-0.0681781 -0.00249162 0
-0.0760045 -0.00647553 0
-0.0705581 -0.0119885 0
-0.0673041 -0.0130486 0