<?xml version="1.0"?>
<VTKFile type="UnstructuredGrid">
  <UnstructuredGrid>
  <Piece NumberOfPoints="5412"  NumberOfCells="2638">
    <Points>
      <DataArray type="Float64" NumberOfComponents="3" format="ascii">
8.5 7.5 0.1
9 8 0.1
8.5 8.5 0.1
8 8 0.1
8.5 6 0.1
10.5 8 0.1
8.5 10 0.1
6.5 8 0.1
8.5 5 0.1
11.5 8 0.1
8.5 11 0.1
5.5 8 0.1
8.53923 7.50154 0.1
8.57822 7.50616 0.1
8.61672 7.51382 0.1
8.65451 7.52447 0.1
8.69134 7.53806 0.1
8.727 7.5545 0.1
8.76125 7.57368 0.1
8.79389 7.59549 0.1
8.82472 7.6198 0.1
8.85355 7.64645 0.1
8.8802 7.67528 0.1
8.90451 7.70611 0.1
8.92632 7.73875 0.1
8.9455 7.773 0.1
8.96194 7.80866 0.1
8.97553 7.84549 0.1
8.98618 7.88328 0.1
8.99384 7.92178 0.1
8.99846 7.96077 0.1
8.51963 7.50039 0.1
8.55877 7.50347 0.1
8.59755 7.50961 0.1
8.63572 7.51877 0.1
8.67306 7.5309 0.1
8.70933 7.54593 0.1
8.74431 7.56375 0.1
8.77779 7.58427 0.1
8.80955 7.60734 0.1
8.8394 7.63284 0.1
8.86716 7.6606 0.1
8.89266 7.69045 0.1
8.91573 7.72221 0.1
8.93625 7.75569 0.1
8.95407 7.79067 0.1
8.9691 7.82694 0.1
8.98123 7.86428 0.1
8.99039 7.90245 0.1
8.99653 7.94123 0.1
8.99961 7.98037 0.1
8.99846 8.03923 0.1
8.99384 8.07822 0.1
8.98618 8.11672 0.1
8.97553 8.15451 0.1
8.96194 8.19134 0.1
8.9455 8.227 0.1
8.92632 8.26125 0.1
8.90451 8.29389 0.1
8.8802 8.32472 0.1
8.85355 8.35355 0.1
8.82472 8.3802 0.1
8.79389 8.40451 0.1
8.76125 8.42632 0.1
8.727 8.4455 0.1
8.69134 8.46194 0.1
8.65451 8.47553 0.1
8.61672 8.48618 0.1
8.57822 8.49384 0.1
8.53923 8.49846 0.1
8.99961 8.01963 0.1
8.99653 8.05877 0.1
8.99039 8.09755 0.1
8.98123 8.13572 0.1
8.9691 8.17306 0.1
8.95407 8.20933 0.1
8.93625 8.24431 0.1
8.91573 8.27779 0.1
8.89266 8.30955 0.1
8.86716 8.3394 0.1
8.8394 8.36716 0.1
8.80955 8.39266 0.1
8.77779 8.41573 0.1
8.74431 8.43625 0.1
8.70933 8.45407 0.1
8.67306 8.4691 0.1
8.63572 8.48123 0.1
8.59755 8.49039 0.1
8.55877 8.49653 0.1
8.51963 8.49961 0.1
8.46077 8.49846 0.1
8.42178 8.49384 0.1
8.38328 8.48618 0.1
8.34549 8.47553 0.1
8.30866 8.46194 0.1
8.273 8.4455 0.1
8.23875 8.42632 0.1
8.20611 8.40451 0.1
8.17528 8.3802 0.1
8.14645 8.35355 0.1
8.1198 8.32472 0.1
8.09549 8.29389 0.1
8.07368 8.26125 0.1
8.0545 8.227 0.1
8.03806 8.19134 0.1
8.02447 8.15451 0.1
8.01382 8.11672 0.1
8.00616 8.07822 0.1
8.00154 8.03923 0.1
8.48037 8.49961 0.1
8.44123 8.49653 0.1
8.40245 8.49039 0.1
8.36428 8.48123 0.1
8.32694 8.4691 0.1
8.29067 8.45407 0.1
8.25569 8.43625 0.1
8.22221 8.41573 0.1
8.19045 8.39266 0.1
8.1606 8.36716 0.1
8.13284 8.3394 0.1
8.10734 8.30955 0.1
8.08427 8.27779 0.1
8.06375 8.24431 0.1
8.04593 8.20933 0.1
8.0309 8.17306 0.1
8.01877 8.13572 0.1
8.00961 8.09755 0.1
8.00347 8.05877 0.1
8.00039 8.01963 0.1
8.00154 7.96077 0.1
8.00616 7.92178 0.1
8.01382 7.88328 0.1
8.02447 7.84549 0.1
8.03806 7.80866 0.1
8.0545 7.773 0.1
8.07368 7.73875 0.1
8.09549 7.70611 0.1
8.1198 7.67528 0.1
8.14645 7.64645 0.1
8.17528 7.6198 0.1
8.20611 7.59549 0.1
8.23875 7.57368 0.1
8.273 7.5545 0.1
8.30866 7.53806 0.1
8.34549 7.52447 0.1
8.38328 7.51382 0.1
8.42178 7.50616 0.1
8.46077 7.50154 0.1
8.00039 7.98037 0.1
8.00347 7.94123 0.1
8.00961 7.90245 0.1
8.01877 7.86428 0.1
8.0309 7.82694 0.1
8.04593 7.79067 0.1
8.06375 7.75569 0.1
8.08427 7.72221 0.1
8.10734 7.69045 0.1
8.13284 7.6606 0.1
8.1606 7.63284 0.1
8.19045 7.60734 0.1
8.22221 7.58427 0.1
8.25569 7.56375 0.1
8.29067 7.54593 0.1
8.32694 7.5309 0.1
8.36428 7.51877 0.1
8.40245 7.50961 0.1
8.44123 7.50347 0.1
8.48037 7.50039 0.1
8.72393 6.01258 0.1
8.94504 6.05014 0.1
9.16056 6.11223 0.1
9.36777 6.19806 0.1
9.56406 6.30655 0.1
9.74698 6.43634 0.1
9.91421 6.58579 0.1
10.0637 6.75302 0.1
10.1934 6.93594 0.1
10.3019 7.13223 0.1
10.3878 7.33944 0.1
10.4499 7.55496 0.1
10.4874 7.77607 0.1
8.61214 6.00315 0.1
8.83501 6.02826 0.1
9.05367 6.07817 0.1
9.26537 6.15224 0.1
9.46744 6.24955 0.1
9.65734 6.36888 0.1
9.83269 6.50872 0.1
9.99128 6.66731 0.1
10.1311 6.84266 0.1
10.2504 7.03256 0.1
10.3478 7.23463 0.1
10.4218 7.44633 0.1
10.4717 7.66499 0.1
10.4969 7.88786 0.1
10.4874 8.22393 0.1
10.4499 8.44504 0.1
10.3878 8.66056 0.1
10.3019 8.86777 0.1
10.1934 9.06406 0.1
10.0637 9.24698 0.1
9.91421 9.41421 0.1
9.74698 9.56366 0.1
9.56406 9.69345 0.1
9.36777 9.80194 0.1
9.16056 9.88777 0.1
8.94504 9.94986 0.1
8.72393 9.98742 0.1
10.4969 8.11214 0.1
10.4717 8.33501 0.1
10.4218 8.55367 0.1
10.3478 8.76537 0.1
10.2504 8.96744 0.1
10.1311 9.15734 0.1
9.99128 9.33269 0.1
9.83269 9.49128 0.1
9.65734 9.63112 0.1
9.46744 9.75045 0.1
9.26537 9.84776 0.1
9.05367 9.92183 0.1
8.83501 9.97174 0.1
8.61214 9.99685 0.1
8.27607 9.98742 0.1
8.05496 9.94986 0.1
7.83944 9.88777 0.1
7.63223 9.80194 0.1
7.43594 9.69345 0.1
7.25302 9.56366 0.1
7.08579 9.41421 0.1
6.93634 9.24698 0.1
6.80655 9.06406 0.1
6.69806 8.86777 0.1
6.61223 8.66056 0.1
6.55014 8.44504 0.1
6.51258 8.22393 0.1
8.38786 9.99685 0.1
8.16499 9.97174 0.1
7.94633 9.92183 0.1
7.73463 9.84776 0.1
7.53256 9.75045 0.1
7.34266 9.63112 0.1
7.16731 9.49128 0.1
7.00872 9.33269 0.1
6.86888 9.15734 0.1
6.74955 8.96744 0.1
6.65224 8.76537 0.1
6.57817 8.55367 0.1
6.52826 8.33501 0.1
6.50315 8.11214 0.1
6.51258 7.77607 0.1
6.55014 7.55496 0.1
6.61223 7.33944 0.1
6.69806 7.13223 0.1
6.80655 6.93594 0.1
6.93634 6.75302 0.1
7.08579 6.58579 0.1
7.25302 6.43634 0.1
7.43594 6.30655 0.1
7.63223 6.19806 0.1
7.83944 6.11223 0.1
8.05496 6.05014 0.1
8.27607 6.01258 0.1
6.50315 7.88786 0.1
6.52826 7.66499 0.1
6.57817 7.44633 0.1
6.65224 7.23463 0.1
6.74955 7.03256 0.1
6.86888 6.84266 0.1
7.00872 6.66731 0.1
7.16731 6.50872 0.1
7.34266 6.36888 0.1
7.53256 6.24955 0.1
7.73463 6.15224 0.1
7.94633 6.07817 0.1
8.16499 6.02826 0.1
8.38786 6.00315 0.1
8.83589 5.01886 0.1
9.16756 5.07522 0.1
9.49084 5.16835 0.1
9.80165 5.29709 0.1
10.0961 5.45983 0.1
10.3705 5.65451 0.1
10.6213 5.87868 0.1
10.8455 6.12953 0.1
11.0402 6.4039 0.1
11.2029 6.69835 0.1
11.3316 7.00916 0.1
11.4248 7.33244 0.1
11.4811 7.66411 0.1
8.66821 5.00472 0.1
9.00252 5.04239 0.1
9.33051 5.11725 0.1
9.64805 5.22836 0.1
9.95116 5.37433 0.1
10.236 5.55332 0.1
10.499 5.76307 0.1
10.7369 6.00096 0.1
10.9467 6.26399 0.1
11.1257 6.54884 0.1
11.2716 6.85195 0.1
11.3828 7.16949 0.1
11.4576 7.49748 0.1
11.4953 7.83179 0.1
11.4811 8.33589 0.1
11.4248 8.66756 0.1
11.3316 8.99084 0.1
11.2029 9.30165 0.1
11.0402 9.5961 0.1
10.8455 9.87047 0.1
10.6213 10.1213 0.1
10.3705 10.3455 0.1
10.0961 10.5402 0.1
9.80165 10.7029 0.1
9.49084 10.8316 0.1
9.16756 10.9248 0.1
8.83589 10.9811 0.1
11.4953 8.16821 0.1
11.4576 8.50252 0.1
11.3828 8.83051 0.1
11.2716 9.14805 0.1
11.1257 9.45116 0.1
10.9467 9.73601 0.1
10.7369 9.99904 0.1
10.499 10.2369 0.1
10.236 10.4467 0.1
9.95116 10.6257 0.1
9.64805 10.7716 0.1
9.33051 10.8828 0.1
9.00252 10.9576 0.1
8.66821 10.9953 0.1
8.16411 10.9811 0.1
7.83244 10.9248 0.1
7.50916 10.8316 0.1
7.19835 10.7029 0.1
6.9039 10.5402 0.1
6.62953 10.3455 0.1
6.37868 10.1213 0.1
6.15451 9.87047 0.1
5.95983 9.5961 0.1
5.79709 9.30165 0.1
5.66835 8.99084 0.1
5.57522 8.66756 0.1
5.51886 8.33589 0.1
8.33179 10.9953 0.1
7.99748 10.9576 0.1
7.66949 10.8828 0.1
7.35195 10.7716 0.1
7.04884 10.6257 0.1
6.76399 10.4467 0.1
6.50096 10.2369 0.1
6.26307 9.99904 0.1
6.05332 9.73601 0.1
5.87433 9.45116 0.1
5.72836 9.14805 0.1
5.61725 8.83051 0.1
5.54239 8.50252 0.1
5.50472 8.16821 0.1
5.51886 7.66411 0.1
5.57522 7.33244 0.1
5.66835 7.00916 0.1
5.79709 6.69835 0.1
5.95983 6.4039 0.1
6.15451 6.12953 0.1
6.37868 5.87868 0.1
6.62953 5.65451 0.1
6.9039 5.45983 0.1
7.19835 5.29709 0.1
7.50916 5.16835 0.1
7.83244 5.07522 0.1
8.16411 5.01886 0.1
5.50472 7.83179 0.1
5.54239 7.49748 0.1
5.61725 7.16949 0.1
5.72836 6.85195 0.1
5.87433 6.54884 0.1
6.05332 6.26399 0.1
6.26307 6.00096 0.1
6.50096 5.76307 0.1
6.76399 5.55332 0.1
7.04884 5.37433 0.1
7.35195 5.22836 0.1
7.66949 5.11725 0.1
7.99748 5.04239 0.1
8.33179 5.00472 0.1
8.5 6.1 0.1
8.5 6.2 0.1
8.5 6.3 0.1
8.5 6.4 0.1
8.5 6.5 0.1
8.5 6.6 0.1
8.5 6.7 0.1
8.5 6.8 0.1
8.5 6.9 0.1
8.5 7 0.1
8.5 7.1 0.1
8.5 7.2 0.1
8.5 7.3 0.1
8.5 7.4 0.1
8.5 6.05 0.1
8.5 6.15 0.1
8.5 6.25 0.1
8.5 6.35 0.1
8.5 6.45 0.1
8.5 6.55 0.1
8.5 6.65 0.1
8.5 6.75 0.1
8.5 6.85 0.1
8.5 6.95 0.1
8.5 7.05 0.1
8.5 7.15 0.1
8.5 7.25 0.1
8.5 7.35 0.1
8.5 7.45 0.1
9.1 8 0.1
9.2 8 0.1
9.3 8 0.1
9.4 8 0.1
9.5 8 0.1
9.6 8 0.1
9.7 8 0.1
9.8 8 0.1
9.9 8 0.1
10 8 0.1
10.1 8 0.1
10.2 8 0.1
10.3 8 0.1
10.4 8 0.1
9.05 8 0.1
9.15 8 0.1
9.25 8 0.1
9.35 8 0.1
9.45 8 0.1
9.55 8 0.1
9.65 8 0.1
9.75 8 0.1
9.85 8 0.1
9.95 8 0.1
10.05 8 0.1
10.15 8 0.1
10.25 8 0.1
10.35 8 0.1
10.45 8 0.1
8.5 8.6 0.1
8.5 8.7 0.1
8.5 8.8 0.1
8.5 8.9 0.1
8.5 9 0.1
8.5 9.1 0.1
8.5 9.2 0.1
8.5 9.3 0.1
8.5 9.4 0.1
8.5 9.5 0.1
8.5 9.6 0.1
8.5 9.7 0.1
8.5 9.8 0.1
8.5 9.9 0.1
8.5 8.55 0.1
8.5 8.65 0.1
8.5 8.75 0.1
8.5 8.85 0.1
8.5 8.95 0.1
8.5 9.05 0.1
8.5 9.15 0.1
8.5 9.25 0.1
8.5 9.35 0.1
8.5 9.45 0.1
8.5 9.55 0.1
8.5 9.65 0.1
8.5 9.75 0.1
8.5 9.85 0.1
8.5 9.95 0.1
6.6 8 0.1
6.7 8 0.1
6.8 8 0.1
6.9 8 0.1
7 8 0.1
7.1 8 0.1
7.2 8 0.1
7.3 8 0.1
7.4 8 0.1
7.5 8 0.1
7.6 8 0.1
7.7 8 0.1
7.8 8 0.1
7.9 8 0.1
6.55 8 0.1
6.65 8 0.1
6.75 8 0.1
6.85 8 0.1
6.95 8 0.1
7.05 8 0.1
7.15 8 0.1
7.25 8 0.1
7.35 8 0.1
7.45 8 0.1
7.55 8 0.1
7.65 8 0.1
7.75 8 0.1
7.85 8 0.1
7.95 8 0.1
8.5 5.33333 0.1
8.5 5.66667 0.1
8.5 5.16667 0.1
8.5 5.5 0.1
8.5 5.83333 0.1
10.8333 8 0.1
11.1667 8 0.1
10.6667 8 0.1
11 8 0.1
11.3333 8 0.1
8.5 10.3333 0.1
8.5 10.6667 0.1
8.5 10.1667 0.1
8.5 10.5 0.1
8.5 10.8333 0.1
5.83333 8 0.1
6.16667 8 0.1
5.66667 8 0.1
6 8 0.1
6.33333 8 0.1
9.42912 7.36778 0.1
8.98107 7.14335 0.1
9.12034 7.43554 0.1
9.01433 6.66213 0.1
9.17936 7.68419 0.1
9.85922 7.57796 0.1
8.76256 7.28829 0.1
9.38426 6.90812 0.1
8.92185 7.46489 0.1
9.02088 7.58931 0.1
9.52889 7.66584 0.1
8.77428 6.9572 0.1
9.79217 7.11621 0.1
9.14334 7.82286 0.1
9.23019 7.21456 0.1
8.76547 7.42416 0.1
8.78426 6.45 0.1
10.05 7.73427 0.1
9.02751 7.71032 0.1
9.75 7.78105 0.1
8.64858 7.43517 0.1
9.37911 7.79108 0.1
9.35145 7.59348 0.1
8.67575 6.75137 0.1
8.82688 7.51565 0.1
8.89755 7.56932 0.1
9.00894 6.90235 0.1
9.31754 6.58936 0.1
8.99619 7.31062 0.1
8.67317 7.1143 0.1
8.70809 6.25 0.1
10.2334 7.80568 0.1
9.45268 7.13775 0.1
[...]
    <PointData>
      <DataArray type="Float64" NumberOfComponents="3" Name="Velocity" format="ascii">
0 0 0
0 0 0
0 0 0
0 0 0
1.04567 0.00301356 0
0.938706 4.07195e-06 0
1.0458 -0.00330671 0
0.937588 -3.61717e-06 0
1.03261 -0.000775489 0
0.973029 -5.83185e-06 0
1.0323 0.000674267 0
0.975562 -9.13908e-06 0
0 0 0
0 0 0
0 0 0
0 0 0
0 0 0
0 0 0
0 0 0
0 0 0
0 0 0
0 0 0
0 0 0
0 0 0
0 0 0
0 0 0
0 0 0
0 0 0
0 0 0
0 0 0
0 0 0
0 0 0
0 0 0
0 0 0
0 0 0
0 0 0
0 0 0
0 0 0
0 0 0
0 0 0
0 0 0
0 0 0
0 0 0
0 0 0
0 0 0
0 0 0
0 0 0
0 0 0
0 0 0
0 0 0
0 0 0
0 0 0
0 0 0
0 0 0
0 0 0
0 0 0
0 0 0
0 0 0
0 0 0
0 0 0
0 0 0
0 0 0
0 0 0
0 0 0
0 0 0
0 0 0
0 0 0
0 0 0
0 0 0
0 0 0
0 0 0
0 0 0
0 0 0
0 0 0
0 0 0
0 0 0
0 0 0
0 0 0
0 0 0
0 0 0
0 0 0
0 0 0
0 0 0
0 0 0
0 0 0
0 0 0
0 0 0
0 0 0
0 0 0
0 0 0
0 0 0
0 0 0
0 0 0
0 0 0
0 0 0
0 0 0
0 0 0
0 0 0
0 0 0
0 0 0
0 0 0
0 0 0
0 0 0
0 0 0
0 0 0
0 0 0
0 0 0
0 0 0
0 0 0
0 0 0
0 0 0
0 0 0
0 0 0
0 0 0
0 0 0
0 0 0
0 0 0
0 0 0
0 0 0
0 0 0
0 0 0
0 0 0
0 0 0
0 0 0
0 0 0
0 0 0
0 0 0
0 0 0
0 0 0
0 0 0
0 0 0
0 0 0
0 0 0
0 0 0
0 0 0
0 0 0
0 0 0
0 0 0
0 0 0
0 0 0
0 0 0
0 0 0
0 0 0
0 0 0
0 0 0
0 0 0
0 0 0
0 0 0
0 0 0
0 0 0
0 0 0
0 0 0
0 0 0
0 0 0
0 0 0
0 0 0
0 0 0
0 0 0
0 0 0
0 0 0
0 0 0
0 0 0
0 0 0
0 0 0
0 0 0
0 0 0
0 0 0
0 0 0
1.05114 0.0132921 0
1.05167 0.0251172 0
1.05011 0.036905 0
1.04306 0.0500862 0
1.03169 0.0589292 0
1.01897 0.0647296 0
1.00501 0.0660574 0
0.992495 0.0627114 0
0.978138 0.0590197 0
0.964034 0.0525239 0
0.95258 0.0428801 0
0.944068 0.0301696 0
0.939959 0.0151805 0
1.04877 0.00581109 0
1.05176 0.0188532 0
1.05114 0.0314709 0
1.04774 0.0438799 0
1.03812 0.0541416 0
1.02568 0.0619204 0
1.01288 0.0662593 0
0.997442 0.0666056 0
0.983324 0.0627654 0
0.969447 0.0569461 0
0.956911 0.048322 0
0.947576 0.0367769 0
0.941197 0.022982 0
0.938053 0.00806759 0
0.939865 -0.0152135 0
0.943976 -0.0300739 0
0.952352 -0.042718 0
0.964293 -0.0522167 0
0.978751 -0.0591186 0
0.991559 -0.0628636 0
1.00574 -0.0672746 0
1.01984 -0.0647 0
1.03277 -0.0591511 0
1.04373 -0.0494706 0
1.05078 -0.0383018 0
1.05322 -0.026489 0
1.04938 -0.0129107 0
0.93807 -0.00804128 0
0.941233 -0.0230383 0
0.947645 -0.0367903 0
0.956895 -0.0482436 0
0.968981 -0.0568995 0
0.983173 -0.06259 0
0.998843 -0.0668317 0
1.01351 -0.0670423 0
1.0269 -0.0633235 0
1.03968 -0.0551128 0
1.04935 -0.0443311 0
1.05248 -0.0315492 0
1.05212 -0.0191236 0
1.04863 -0.00558907 0
1.0449 0.0110327 0
1.04215 0.0232272 0
1.03715 0.034018 0
1.02923 0.0425527 0
1.01893 0.0483182 0
1.00682 0.0536899 0
0.994734 0.057995 0
0.982516 0.0585757 0
0.971258 0.054525 0
0.960983 0.0463061 0
0.952316 0.0353006 0
0.944303 0.023269 0
0.939276 0.0116293 0
1.04494 0.00549299 0
1.04392 0.0169666 0
1.03988 0.0298463 0
1.03266 0.0401184 0
1.0235 0.0468754 0
1.01305 0.0515345 0
1.00165 0.0553314 0
0.988801 0.058342 0
0.976539 0.0574539 0
0.965148 0.0512809 0
0.95615 0.0412001 0
0.948362 0.0294047 0
0.941714 0.0174007 0
0.938028 0.00586009 0
0.93927 -0.0116225 0
0.944348 -0.023267 0
0.952338 -0.0353399 0
0.960987 -0.046384 0
0.970726 -0.0546276 0
0.982582 -0.0587332 0
0.994887 -0.0580905 0
1.00687 -0.0536057 0
1.01865 -0.0485791 0
1.02931 -0.0421514 0
1.03766 -0.0339967 0
1.04275 -0.0230154 0
1.04472 -0.0110945 0
0.938029 -0.00587208 0
0.941713 -0.0174069 0
0.94836 -0.0293833 0
0.956193 -0.0412814 0
0.965321 -0.0512736 0
0.976699 -0.0573626 0
0.98913 -0.0585749 0
1.00132 -0.0554016 0
1.01309 -0.0512582 0
1.02333 -0.0467794 0
1.0329 -0.0403771 0
1.0402 -0.0299181 0
1.04385 -0.0170738 0
1.04547 -0.00521981 0
1.03257 0.00566266 0
1.03002 0.0123395 0
1.02658 0.0179963 0
1.02178 0.0225123 0
1.01606 0.0260479 0
1.00921 0.0285008 0
1.00316 0.0292541 0
0.997313 0.0284069 0
0.99048 0.0264443 0
0.984612 0.0226987 0
0.980237 0.0176685 0
0.976558 0.0120615 0
0.973813 0.00636284 0
1.03265 0.00258514 0
1.03142 0.00882786 0
1.02859 0.0153402 0
1.02468 0.0203101 0
1.01939 0.0243031 0
1.01308 0.0272767 0
1.00642 0.0290831 0
1.0005 0.0288604 0
0.993987 0.0274547 0
0.987404 0.0247981 0
0.982362 0.0202614 0
0.978357 0.0148971 0
0.975112 0.00929425 0
0.973268 0.00329901 0
0.973816 -0.00636391 0
0.976553 -0.0120575 0
0.980248 -0.0176505 0
0.984681 -0.0227569 0
0.990498 -0.0263392 0
0.997312 -0.0282736 0
1.0033 -0.0292247 0
1.00948 -0.0284557 0
1.01636 -0.0259877 0
1.02196 -0.0225268 0
1.02649 -0.017955 0
1.02982 -0.0124006 0
1.03208 -0.00565508 0
0.973266 -0.00329831 0
0.975095 -0.00928193 0
0.97833 -0.0148911 0
0.982383 -0.0202589 0
0.987384 -0.0247768 0
0.993954 -0.0274947 0
1.00044 -0.0288499 0
1.00628 -0.0290673 0
1.01302 -0.0273465 0
1.01937 -0.0243809 0
1.02447 -0.02032 0
1.02875 -0.0153874 0
1.03128 -0.00899732 0
1.03241 -0.00240709 0
1.03101 0.00678383 0
1.02844 0.0126637 0
1.02524 0.0177779 0
1.02099 0.0225461 0
1.01536 0.0262532 0
1.00895 0.0282598 0
1.00302 0.0284175 0
0.996892 0.0271529 0
0.990719 0.0256296 0
0.985131 0.0242905 0
0.980004 0.0203595 0
0.976742 0.0138321 0
0.97578 0.00662165 0
1.03178 0.00388123 0
1.02973 0.00956707 0
1.02716 0.015232 0
1.02349 0.0203063 0
1.01843 0.0245443 0
1.01233 0.027396 0
1.00603 0.0285868 0
1.00009 0.0277615 0
0.993845 0.0260539 0
0.988131 0.0249607 0
0.982659 0.0225934 0
0.978081 0.0172872 0
0.976084 0.0102785 0
0.97559 0.00334539 0
0.975743 -0.00662583 0
0.976663 -0.0138923 0
0.979966 -0.0203333 0
0.985194 -0.0243438 0
0.990718 -0.0258046 0
0.996773 -0.0270985 0
1.00286 -0.0282218 0
1.00901 -0.0282799 0
1.01539 -0.026206 0
1.02115 -0.0225562 0
1.02553 -0.0179324 0
1.02837 -0.0126558 0
1.03117 -0.00702153 0
0.975579 -0.00336429 0
0.976115 -0.0103543 0
0.978133 -0.0173204 0
0.982761 -0.0224978 0
0.988178 -0.024978 0
0.99387 -0.0261084 0
1.00001 -0.0276842 0
1.00599 -0.0285779 0
1.01225 -0.0274063 0
1.0184 -0.0244869 0
1.02346 -0.0202389 0
1.02712 -0.0153563 0
1.02997 -0.00957347 0
1.03201 -0.00369176 0
1.08456 -0.00198688 0
1.09333 -0.00172024 0
1.10345 -0.00196041 0
1.11611 -0.0024292 0
1.13051 -0.0030904 0
1.14896 -0.00381798 0
1.17143 -0.00485772 0
1.19972 -0.00623561 0
1.23613 -0.00824927 0
1.28416 -0.0112167 0
1.34829 -0.0163828 0
1.43747 -0.0248339 0
1.57075 -0.0430691 0
1.70057 -0.0494974 0
1.07331 0.000417482 0
1.09057 -0.00180364 0
1.09801 -0.00180947 0
1.10957 -0.00230084 0
1.12298 -0.00272271 0
1.13932 -0.00344035 0
1.15944 -0.00428896 0
1.18457 -0.0054848 0
1.21662 -0.00714975 0
1.25816 -0.0095576 0
1.31307 -0.0133154 0
1.38935 -0.019666 0
1.49614 -0.0305243 0
1.64877 -0.058694 0
1.75863 -0.126258 0
0.165415 0.00497934 0
0.408326 -0.000437245 0
0.550865 0.000271251 0
0.650497 0.000215501 0
0.720712 0.000114713 0
0.771013 5.6702e-05 0
0.810064 0.00013382 0
0.83967 0.000112678 0
0.863318 2.10395e-05 0
0.882005 1.79357e-05 0
0.897608 1.10176e-05 0
0.910433 9.00253e-06 0
0.921069 4.85131e-06 0
0.930393 3.24868e-06 0
0.0210184 -0.00241749 0
0.302732 -0.000941183 0
0.486576 0.000454771 0
0.604802 0.000486398 0
0.688183 0.000127963 0
0.747675 0.000140565 0
0.791737 9.90904e-05 0
0.825737 5.3889e-05 0
0.852138 1.10578e-05 0
0.87316 2.2305e-05 0
0.890167 9.00569e-06 0
0.904281 1.83037e-05 0
0.915975 5.7369e-06 0
0.92592 4.13431e-06 0
0.934627 1.94921e-05 0
1.7296 0.0600075 0
1.57985 0.0444101 0
1.43625 0.0242761 0
1.34831 0.0157993 0
1.28431 0.0113654 0
1.23604 0.00822842 0
1.19982 0.00615909 0
1.17158 0.00490931 0
1.14902 0.00388761 0
1.13051 0.00310203 0
1.11609 0.00246313 0
1.10351 0.00181151 0
1.0935 0.00141774 0
1.0846 0.00191076 0
1.75188 0.134054 0
1.63763 0.0449327 0
1.49645 0.0285847 0
1.38962 0.0195023 0
1.31255 0.0133461 0
1.2581 0.00956028 0
1.21654 0.007151 0
1.18438 0.00553983 0
1.15933 0.00432426 0
1.13931 0.00349081 0
1.12295 0.0027152 0
1.10964 0.00222927 0
1.09781 0.00154118 0
1.09072 0.00177339 0
1.07255 -0.000408038 0
0.931954 7.7227e-06 0
0.924253 -9.42295e-07 0
0.914717 -7.47637e-06 0
0.902957 -6.07753e-06 0
0.88842 -8.17968e-06 0
0.870906 -7.08161e-06 0
0.848922 -7.54038e-06 0
0.821913 -8.89873e-06 0
0.786541 -1.06787e-05 0
0.741205 -1.30135e-05 0
0.678604 -1.55716e-05 0
0.593414 -1.46477e-05 0
0.471954 2.04662e-05 0
0.272489 0.000137064 0
0.934938 3.26321e-06 0
0.928374 4.5302e-06 0
0.919711 -4.06683e-06 0
0.909129 -4.22989e-06 0
0.896058 -7.75956e-06 0
0.880135 -7.49694e-06 0
0.860565 -7.19793e-06 0
0.836261 -8.19205e-06 0
0.805411 -9.64964e-06 0
0.765479 -1.16259e-05 0
0.712319 -1.44635e-05 0
0.639459 -1.93796e-05 0
0.53848 -3.20695e-05 0
0.384013 -5.48342e-05 0
0.147065 -0.000259148 0
1.04167 -0.00111649 0
1.0578 -0.000954229 0
1.03569 -0.001023 0
1.04861 -0.000994941 0
1.04955 -0.000984201 0
0.953903 6.32527e-06 0
0.965782 -2.23358e-06 0
0.946789 -7.849e-06 0
0.960678 2.66708e-06 0
0.969662 3.5525e-06 0
1.05781 0.00178495 0
1.04126 0.000944722 0
1.04954 0.000908004 0
1.04884 0.000943315 0
1.0358 0.00079234 0
0.966378 -7.43361e-06 0
0.953054 1.362e-05 0
0.971493 -9.28885e-06 0
0.960051 -1.52094e-05 0
0.945613 -1.43143e-06 0
0.930141 0.210165 0
1.16786 0.244895 0
0.982197 0.402501 0
1.1108 0.0884471 0
0.695165 0.404133 0
0.8935 0.0801224 0
1.41206 0.304311 0
1.04046 0.138365 0
1.10721 0.567379 0
0.902372 0.624734 0
0.812958 0.145973 0
1.22124 0.110952 0
0.96805 0.107492 0
0.449752 0.361885 0
1.03155 0.244086 0
1.45725 0.527583 0
1.1135 0.0370971 0
0.900178 0.0386674 0
0.663798 0.754962 0
0.841942 0.0613232 0
1.89543 0.361685 0
0.694938 0.164709 0
0.812187 0.254121 0
1.17686 0.0430175 0
1.45288 0.864684 0
1.20767 0.896705 0
1.13477 0.142603 0
1.06204 0.0896506 0
1.13884 0.367404 0
1.33087 0.115585 0
1.09552 0.0195561 0
0.917654 0.0208539 0
0.994597 0.170288 0
0.887359 0.145052 0
0.944144 0.0742764 0
1.00673 0.100743 0
0.880477 0.836696 0
1.31313 0.450558 0
0.927417 0.291904 0
1.08269 0.0564752 0
0.843854 0.434931 0
0.767947 0.0790733 0
1.0899 0.188983 0
0.946438 0.151066 0
0.180398 0.334 0
0.367073 0.597073 0
0.930469 0.107071 0
1.54322 0.165841 0
1.27337 0.226632 0
1.08115 0.11908 0
0.536036 0.182029 0
1.64922 0.707604 0
1.15658 0.0967422 0
0.932762 0.0464013 0
1.14028 0.0275315 0
0.876891 0.0359612 0
1.04394 0.305948 0
0.980648 0.520598 0
1.24596 0.0607921 0
0.87312 0.109057 0
1.19548 0.166227 0
1.21763 0.866296 0
1.12369 0.0180215 0
0.860207 0.178065 0
1.0387 0.182633 0
1.99941 0.133875 0
1.13541 0.0601491 0
1.03398 0.0991005 0
1.21911 0.305849 0
0.780294 0.530295 0
0.995061 0.122735 0
0.485942 0.573107 0
0.714562 0.656208 0
0.891413 0.018227 0
0.728887 0.248398 0
0.785965 0.345426 0
0.522159 0.485072 0
1.12592 0.486554 0
1.08643 0.26772 0
0.987388 0.0837492 0
0.705527 0.0716799 0
0.799474 0.0429608 0
0.970704 0.243992 0
0.769139 0.190295 0
0.967871 0.0860182 0
1.28402 0.516577 0
0.319276 0.500491 0
0.87495 0.0615714 0
1.09565 0.0383976 0
1.44281 0.776268 0
0.381495 0.218839 0
1.2697 0.396824 0
0.913101 0.059035 0
1.21437 0.0275811 0
1.41704 0.0889888 0
1.00474 0.641368 0
1.51947 0.332465 0
0.0394582 0.141427 0
0.11159 0.299647 0
0.578181 0.311855 0
1.08421 0.00905082 0
0.927123 0.0118396 0
1.30483 0.0470658 0
1.08566 0.0763361 0
1.0609 0.0627129 0
0.904081 0.366637 0
0.817662 0.080475 0
1.07071 0.149805 0
1.03563 0.077603 0
1.14609 0.187759 0
0.613972 0.526413 0
0.837494 0.0296962 0
1.11061 0.0597537 0
0.199114 0.286579 0
1.25768 0.153946 0
0.880575 0.236499 0
1.39418 0.19074 0
1.1604 0.0198967 0
0.984876 0.340037 0
0.905201 0.0119205 0
1.10766 0.0105775 0
0.98318 0.220324 0
0.607964 0.0982207 0
0.750056 0.129658 0
0.896916 0.511868 0
1.50924 -0.0068394 0
0.92425 0.0842356 0
1.22822 0.170569 0
0.9698 0.195866 0
1.08424 0.844669 0
0.373875 0.399736 0
1.0606 0.386114 0
0.809333 0.752933 0
1.25901 0.784088 0
1.19938 0.068704 0
1.17056 0.127332 0
1.41167 0.416164 0
1.02203 0.119466 0
-0.00324215 0.0275844 0
0.916609 0.00934972 0
1.09717 0.00741151 0
1.01605 0.0816692 0
1.6236 0.136086 0
1.50844 0.720849 0
0.919007 0.165389 0
1.10913 0.11432 0
0.949125 0.0949757 0
0.712046 0.468464 0
0.917722 0.03686 0
0.0999774 0.202093 0
1.08152 0.00532126 0
0.93348 0.00721443 0
0.854395 0.137016 0
1.27295 0.0986108 0
0.874317 0.0154015 0
1.21423 0.508274 0
1.10723 0.0247856 0
1.00125 0.207029 0
1.14023 0.0114332 0
0.946833 0.0573644 0
0.86104 0.29679 0
0.975891 0.141437 0
1.05298 0.117322 0
0.0178951 0.100299 0
1.13798 0.29426 0
1.01247 0.144268 0
0.905096 0.109341 0
0.999237 0.28323 0
1.75815 0.522331 0
0.930544 0.0276922 0
1.30166 0.3315 0
1.00169 0.0819454 0
0.753069 0.0392201 0
0.906233 0.0255613 0
0.922908 0.132849 0
0.948587 0.122273 0
1.07421 0.0418633 0
0.985161 0.102148 0
0.658482 0.254431 0
1.08149 0.0252677 0
0.629785 0.218119 0
0.857586 0.0212456 0
0.963006 0.0686022 0
0.552258 0.665933 0
1.33371 0.245196 0
0.931733 0.0643089 0
1.49691 0.0564181 0
1.18449 0.0158301 0
0.210991 0.191207 0
1.21986 0.404455 0
1.10366 0.15197 0
0.825134 0.202579 0
1.07189 0.221612 0
1.04852 0.0696582 0
0.926998 0.246052 0
0.893152 0.0555569 0
1.1622 0.0706998 0
0.931398 0.449418 0
1.15051 0.0442252 0
1.20888 0.213995 0
1.13534 0.0827338 0
1.24058 0.632386 0
0.893406 0.18975 0
0.495777 0.0897789 0
1.18305 0.0953324 0
1.02365 0.456118 0
1.12874 0.0425774 0
0.795006 0.108995 0
1.09128 0.0965021 0
1.11548 0.232901 0
0.486571 0.268572 0
0.772833 0.431474 0
0.858887 0.0822674 0
1.48273 0.247178 0
1.36292 0.0402565 0
1.03631 0.568843 0
1.31205 0.181964 0
0.937864 0.566775 0
1.25645 0.0228147 0
1.06847 0.0636051 0
0.857555 0.0421853 0
1.09223 0.329905 0
0.434476 0.224403 0
1.13477 0.110576 0
0.979091 0.0749626 0
0.660552 0.580019 0
1.16255 0.155986 0
0.956585 0.768481 0
0.394915 0.314677 0
0.836431 0.110563 0
0.94653 0.177649 0
0.675613 0.310364 0
1.10393 0.699764 0
1.0656 0.0538121 0
0.333595 0.459045 0
0.966453 0.167207 0
0.562085 0.702793 0
0.975781 0.094394 0
0.967379 0.0957187 0
0.977537 0.105151 0
0.255159 0.406861 0
0.349391 0.331237 0
0.297846 0.285302 0
0.97813 0.0861243 0
0.987417 0.0935321 0
0.784304 0.0234076 0
0.803042 0.0207142 0
1.10388 0.0376413 0
1.10336 0.0476058 0
1.11287 0.0482966 0
1.62151 0.0379998 0
1.66409 0.0568868 0
0.875925 0.399617 0
0.844352 0.36197 0
0.810886 0.391164 0
0.461501 0.574001 0
0.44012 0.489784 0
0.348735 0.53976 0
0.894828 0.556821 0
0.842908 0.523767 0
0.835692 0.578136 0
1.53861 0.0140079 0
1.58352 0.0867832 0
0.874991 0.160423 0
0.876593 0.184959 0
0.888862 0.16629 0
0.895207 0.0288797 0
0.884177 0.0263126 0
0.889175 0.0377037 0
1.11181 0.0735161 0
1.09869 0.0697226 0
1.09747 0.0825548 0
0.761446 0.0182682 0
0.777887 0.0413597 0
0.819826 0.0354218 0
0.823231 0.0164092 0
1.12044 0.0072336 0
1.12782 0.00794813 0
0.886289 0.00961115 0
0.893965 0.00874966 0
1.07077 0.10291 0
1.08724 0.107799 0
1.07511 0.0942605 0
0.875163 0.0483772 0
0.8844 0.0583865 0
0.88431 0.0464025 0
0.89653 0.0465523 0
1.13168 0.0223275 0
1.12701 0.0297485 0
1.13478 0.0354896 0
1.78366 0.300385 0
1.7426 0.175652 0
1.95365 0.248848 0
1.07941 0.167655 0
1.05681 0.166711 0
1.0632 0.188067 0
0.938855 0.0385631 0
0.943698 0.046216 0
1.09166 0.134101 0
1.10825 0.132212 0
1.09479 0.117684 0
1.08568 0.065396 0
1.09599 0.0586375 0
0.635985 0.36652 0
0.546461 0.384862 0
0.622945 0.443403 0
1.05838 0.103323 0
1.06628 0.119279 0
0.399302 0.412222 0
0.407939 0.294794 0
0.896602 0.125558 0
0.890037 0.110068 0
0.878618 0.127258 0
0.837418 0.0145881 0
1.20776 0.0097461 0
1.22611 0.0110303 0
1.59167 0.15281 0
1.52616 0.103739 0
1.03752 0.272784 0
1.06765 0.287552 0
1.05681 0.257306 0
0.480258 0.426125 0
0.520316 0.333071 0
0.848617 0.246864 0
0.851242 0.221747 0
0.818337 0.226087 0
1.15511 0.00728326 0
1.16659 0.00816226 0
0.789355 0.622428 0
0.87049 0.689603 0
1.14484 0.00416424 0
1.14985 0.015338 0
0.256529 0.25254 0
0.238133 0.224401 0
1.09056 0.0468363 0
0.907037 0.177081 0
0.902171 0.156542 0
0.676115 0.0397697 0
0.709655 0.0341923 0
1.34984 0.890754 0
1.02378 0.700341 0
1.26201 0.793538 0
1.23406 0.0258752 0
1.24648 0.00645929 0
0.708611 0.207426 0
0.749837 0.216932 0
0.733498 0.180431 0
1.28643 0.272473 0
1.3207 0.287029 0
1.30068 0.235848 0
1.25536 0.319587 0
1.25081 0.268491 0
0.772921 0.254288 0
0.751525 0.298581 0
0.799077 0.295151 0
1.1535 0.535964 0
1.16179 0.602847 0
1.19365 0.547522 0
1.00024 0.487573 0
0.97522 0.45597 0
0.952918 0.485996 0
0.147414 0.180029 0
0.127216 0.151865 0
1.23969 0.511809 0
1.26453 0.567102 0
0.843578 0.189699 0
0.86764 0.206631 0
0.879343 0.331807 0
0.827489 0.321436 0
1.7207 0.23036 0
1.58409 0.238933 0
1.64207 0.345165 0
1.36182 0.834733 0
1.31721 0.878678 0
1.07719 0.134001 0
1.08646 0.151966 0
0.871662 0.833502 0
0.749381 0.799991 0
0.688438 0.73556 0
0.651605 0.136503 0
0.613555 0.158589 0
0.664286 0.188281 0
1.23046 0.89293 0
1.2525 0.855332 0
0.953178 0.316815 0
0.992026 0.309274 0
0.963904 0.290493 0
1.23556 0.0872411 0
1.22102 0.0657521 0
1.21066 0.0878504 0
0.745174 0.373406 0
0.732538 0.334023 0
0.682269 0.356431 0
1.18232 0.339392 0
1.17627 0.302868 0
1.14001 0.32864 0
0.913099 0.478509 0
0.938662 0.518419 0
0.696358 0.115299 0
0.661263 0.0831191 0
0.787641 0.223366 0
0.0741449 0.119936 0
0.0656743 0.0905933 0
1.12064 0.0396931 0
1.11912 0.0281054 0
1.04022 0.158622 0
1.05447 0.144998 0
0.983483 0.263231 0
0.951502 0.267152 0
1.01518 0.178299 0
1.02356 0.162322 0
1.00425 0.156827 0
0.970835 0.123395 0
0.98692 0.132074 0
0.980853 0.11623 0
0.88371 0.0933513 0
0.897996 0.094873 0
1.12228 0.060538 0
1.12235 0.0699054 0
1.13608 0.0709865 0
1.24554 0.106372 0
1.25894 0.0784118 0
1.55544 0.239737 0
1.40479 0.456355 0
1.35112 0.466855 0
1.35838 0.531783 0
0.83042 0.069967 0
0.83946 0.0821041 0
0.849869 0.0723253 0
0.729875 0.558072 0
0.729664 0.468207 0
0.67591 0.481181 0
1.19234 0.273073 0
1.21916 0.255955 0
1.18968 0.230397 0
0.864159 0.122381 0
0.8715 0.142255 0
1.23941 0.221242 0
0.730574 0.0530662 0
0.736088 0.0210884 0
1.21138 0.139312 0
1.22531 0.162511 0
1.23871 0.130212 0
1.75502 0.125917 0
1.91667 -0.000333479 0
0.825714 0.0962043 0
0.848016 0.0952502 0
0.93925 0.0524981 0
0.949986 0.0505435 0
1.02669 0.142439 0
0.816817 0.173519 0
0.835115 0.164318 0
1.15559 0.269595 0
0.585433 0.204242 0
0.572243 0.135634 0
0.937662 0.0299907 0
0.930217 0.0371322 0
0.794438 0.0805167 0
0.807085 0.0626712 0
0.783826 0.0591034 0
1.00115 0.427562 0
0.960202 0.426817 0
1.10899 0.525895 0
1.0726 0.523472 0
1.07174 0.568842 0
0.759332 0.0596828 0
1.05314 0.20158 0
1.03663 0.210428 0
1.05261 0.234219 0
1.11044 0.0306376 0
1.10146 0.0315501 0
0.704309 0.278103 0
1.25274 0.528708 0
1.14513 0.540717 0
0.535712 0.236328 0
0.742057 0.764996 0
0.722192 0.670364 0
0.669571 0.670011 0
0.958727 0.114769 0
0.960774 0.132865 0
0.924214 0.0247117 0
0.928163 0.0199982 0
0.92236 0.0161455 0
0.0133606 0.0336645 0
0.0120269 0.0238594 0
1.62123 0.552612 0
1.59034 0.408034 0
1.49589 0.418062 0
1.04887 0.0847876 0
1.03663 0.0885546 0
1.04785 0.0961176 0
1.02274 0.396631 0
1.01929 0.364352 0
0.983408 0.36907 0
0.629806 0.750301 0
0.507099 0.683993 0
0.430181 0.604043 0
1.1216 0.127269 0
1.11913 0.148209 0
0.736866 0.79616 0
0.535879 0.646465 0
0.906051 0.0494276 0
0.914809 0.0474203 0
0.909486 0.0378667 0
0.886828 0.211139 0
0.973739 0.0799107 0
0.971377 0.0717691 0
0.965183 0.0766919 0
0.78228 0.140217 0
0.756932 0.1602 0
0.792628 0.166111 0
1.00726 0.843141 0
0.669922 0.57498 0
1.02484 0.819902 0
1.17404 0.201286 0
1.15625 0.213448 0
1.02197 0.19586 0
1.01471 0.22531 0
1.02108 0.101294 0
1.02559 0.0914128 0
1.01504 0.0918276 0
1.04728 0.127732 0
1.03735 0.11996 0
1.03031 0.128902 0
0.72397 0.144832 0
0.725206 0.102977 0
1.0054 0.544676 0
1.04634 0.506851 0
0.877241 0.0817555 0
0.864789 0.0960999 0
1.46883 0.119913 0
1.41116 0.139 0
1.45868 0.182065 0
1.19493 0.0367363 0
1.19863 0.021229 0
1.1815 0.0298893 0
1.1008 0.669008 0
1.47765 0.8362 0
1.25231 0.0425402 0
1.22975 0.0426643 0
1.69761 0.362319 0
1.09053 0.20275 0
0.877945 0.0072819 0
0.883252 0.016955 0
1.04249 0.107891 0
0.814105 0.478087 0
0.867333 0.473759 0
1.08901 0.0855358 0
1.07499 0.0848548 0
1.08193 0.205113 0
0.774554 0.477261 0
0.733539 0.420563 0
1.13164 0.0151156 0
1.13554 0.00377653 0
0.683094 0.238105 0
1.12272 0.0863522 0
0.855977 0.157065 0
0.835158 0.142164 0
1.06067 0.132127 0
0.588362 0.539806 0
0.94011 0.100667 0
0.936118 0.0905055 0
0.92669 0.0951544 0
0.821744 0.0538535 0
1.20842 0.0488579 0
1.1712 0.179275 0
1.20312 0.188368 0
1.06667 0.318433 0
1.0904 0.296672 0