<?xml version="1.0"?>
<VTKFile type="UnstructuredGrid">
  <UnstructuredGrid>
  <Piece NumberOfPoints="3321"  NumberOfCells="1600">
    <Points>
      <DataArray type="Float64" NumberOfComponents="3" format="ascii">
0 0 0.1
1 0 0.1
1 0.5 0.1
0 0.5 0.1
0.025 0 0.1
0.05 0 0.1
0.075 0 0.1
0.1 0 0.1
0.125 0 0.1
0.15 0 0.1
0.175 0 0.1
0.2 0 0.1
0.225 0 0.1
0.25 0 0.1
0.275 0 0.1
0.3 0 0.1
0.325 0 0.1
0.35 0 0.1
0.375 0 0.1
0.4 0 0.1
0.425 0 0.1
0.45 0 0.1
0.475 0 0.1
0.5 0 0.1
0.525 0 0.1
0.55 0 0.1
0.575 0 0.1
0.6 0 0.1
0.625 0 0.1
0.65 0 0.1
0.675 0 0.1
0.7 0 0.1
0.725 0 0.1
0.75 0 0.1
0.775 0 0.1
0.8 0 0.1
0.825 0 0.1
0.85 0 0.1
0.875 0 0.1
0.9 0 0.1
0.925 0 0.1
0.95 0 0.1
0.975 0 0.1
0.0125 0 0.1
0.0375 0 0.1
0.0625 0 0.1
0.0875 0 0.1
0.1125 0 0.1
0.1375 0 0.1
0.1625 0 0.1
0.1875 0 0.1
0.2125 0 0.1
0.2375 0 0.1
0.2625 0 0.1
0.2875 0 0.1
0.3125 0 0.1
0.3375 0 0.1
0.3625 0 0.1
0.3875 0 0.1
0.4125 0 0.1
0.4375 0 0.1
0.4625 0 0.1
0.4875 0 0.1
0.5125 0 0.1
0.5375 0 0.1
0.5625 0 0.1
0.5875 0 0.1
0.6125 0 0.1
0.6375 0 0.1
0.6625 0 0.1
0.6875 0 0.1
0.7125 0 0.1
0.7375 0 0.1
0.7625 0 0.1
0.7875 0 0.1
0.8125 0 0.1
0.8375 0 0.1
0.8625 0 0.1
0.8875 0 0.1
0.9125 0 0.1
0.9375 0 0.1
0.9625 0 0.1
0.9875 0 0.1
1 0.025 0.1
1 0.05 0.1
1 0.075 0.1
1 0.1 0.1
1 0.125 0.1
1 0.15 0.1
1 0.175 0.1
1 0.2 0.1
1 0.225 0.1
1 0.25 0.1
1 0.275 0.1
1 0.3 0.1
1 0.325 0.1
1 0.35 0.1
1 0.375 0.1
1 0.4 0.1
1 0.425 0.1
1 0.45 0.1
1 0.475 0.1
1 0.0125 0.1
1 0.0375 0.1
1 0.0625 0.1
1 0.0875 0.1
1 0.1125 0.1
1 0.1375 0.1
1 0.1625 0.1
1 0.1875 0.1
1 0.2125 0.1
1 0.2375 0.1
1 0.2625 0.1
1 0.2875 0.1
1 0.3125 0.1
1 0.3375 0.1
1 0.3625 0.1
1 0.3875 0.1
1 0.4125 0.1
1 0.4375 0.1
1 0.4625 0.1
1 0.4875 0.1
0.975 0.5 0.1
0.95 0.5 0.1
0.925 0.5 0.1
0.9 0.5 0.1
0.875 0.5 0.1
0.85 0.5 0.1
0.825 0.5 0.1
0.8 0.5 0.1
0.775 0.5 0.1
0.75 0.5 0.1
0.725 0.5 0.1
0.7 0.5 0.1
0.675 0.5 0.1
0.65 0.5 0.1
0.625 0.5 0.1
0.6 0.5 0.1
0.575 0.5 0.1
0.55 0.5 0.1
0.525 0.5 0.1
0.5 0.5 0.1
0.475 0.5 0.1
0.45 0.5 0.1
0.425 0.5 0.1
0.4 0.5 0.1
0.375 0.5 0.1
0.35 0.5 0.1
0.325 0.5 0.1
0.3 0.5 0.1
0.275 0.5 0.1
0.25 0.5 0.1
0.225 0.5 0.1
0.2 0.5 0.1
0.175 0.5 0.1
0.15 0.5 0.1
0.125 0.5 0.1
0.1 0.5 0.1
0.075 0.5 0.1
0.05 0.5 0.1
0.025 0.5 0.1
0.9875 0.5 0.1
0.9625 0.5 0.1
0.9375 0.5 0.1
0.9125 0.5 0.1
0.8875 0.5 0.1
0.8625 0.5 0.1
0.8375 0.5 0.1
0.8125 0.5 0.1
0.7875 0.5 0.1
0.7625 0.5 0.1
0.7375 0.5 0.1
0.7125 0.5 0.1
0.6875 0.5 0.1
0.6625 0.5 0.1
0.6375 0.5 0.1
0.6125 0.5 0.1
0.5875 0.5 0.1
0.5625 0.5 0.1
0.5375 0.5 0.1
0.5125 0.5 0.1
0.4875 0.5 0.1
0.4625 0.5 0.1
0.4375 0.5 0.1
0.4125 0.5 0.1
0.3875 0.5 0.1
0.3625 0.5 0.1
0.3375 0.5 0.1
0.3125 0.5 0.1
0.2875 0.5 0.1
0.2625 0.5 0.1
0.2375 0.5 0.1
0.2125 0.5 0.1
0.1875 0.5 0.1
0.1625 0.5 0.1
0.1375 0.5 0.1
0.1125 0.5 0.1
0.0875 0.5 0.1
0.0625 0.5 0.1
0.0375 0.5 0.1
0.0125 0.5 0.1
0 0.475 0.1
0 0.45 0.1
0 0.425 0.1
0 0.4 0.1
0 0.375 0.1
0 0.35 0.1
0 0.325 0.1
0 0.3 0.1
0 0.275 0.1
0 0.25 0.1
0 0.225 0.1
0 0.2 0.1
0 0.175 0.1
0 0.15 0.1
0 0.125 0.1
0 0.1 0.1
0 0.075 0.1
0 0.05 0.1
0 0.025 0.1
0 0.4875 0.1
0 0.4625 0.1
0 0.4375 0.1
0 0.4125 0.1
0 0.3875 0.1
0 0.3625 0.1
0 0.3375 0.1
0 0.3125 0.1
0 0.2875 0.1
0 0.2625 0.1
0 0.2375 0.1
0 0.2125 0.1
0 0.1875 0.1
0 0.1625 0.1
0 0.1375 0.1
0 0.1125 0.1
0 0.0875 0.1
0 0.0625 0.1
0 0.0375 0.1
0 0.0125 0.1
0.975 0.475 0.1
0.975 0.45 0.1
0.975 0.425 0.1
0.975 0.4 0.1
0.975 0.375 0.1
0.975 0.35 0.1
0.975 0.325 0.1
0.975 0.3 0.1
0.975 0.275 0.1
0.975 0.25 0.1
0.975 0.225 0.1
0.975 0.2 0.1
0.975 0.175 0.1
0.975 0.15 0.1
0.975 0.125 0.1
0.975 0.1 0.1
0.975 0.075 0.1
0.975 0.05 0.1
0.975 0.025 0.1
0.95 0.475 0.1
0.95 0.45 0.1
0.95 0.425 0.1
0.95 0.4 0.1
0.95 0.375 0.1
0.95 0.35 0.1
0.95 0.325 0.1
0.95 0.3 0.1
0.95 0.275 0.1
0.95 0.25 0.1
0.95 0.225 0.1
0.95 0.2 0.1
0.95 0.175 0.1
0.95 0.15 0.1
0.95 0.125 0.1
0.95 0.1 0.1
0.95 0.075 0.1
0.95 0.05 0.1
0.95 0.025 0.1
0.925 0.475 0.1
0.925 0.45 0.1
0.925 0.425 0.1
0.925 0.4 0.1
0.925 0.375 0.1
0.925 0.35 0.1
0.925 0.325 0.1
0.925 0.3 0.1
0.925 0.275 0.1
0.925 0.25 0.1
0.925 0.225 0.1
0.925 0.2 0.1
0.925 0.175 0.1
0.925 0.15 0.1
0.925 0.125 0.1
0.925 0.1 0.1
0.925 0.075 0.1
0.925 0.05 0.1
0.925 0.025 0.1
0.9 0.475 0.1
0.9 0.45 0.1
0.9 0.425 0.1
0.9 0.4 0.1
0.9 0.375 0.1
0.9 0.35 0.1
0.9 0.325 0.1
0.9 0.3 0.1
0.9 0.275 0.1
0.9 0.25 0.1
0.9 0.225 0.1
0.9 0.2 0.1
0.9 0.175 0.1
0.9 0.15 0.1
0.9 0.125 0.1
0.9 0.1 0.1
0.9 0.075 0.1
0.9 0.05 0.1
0.9 0.025 0.1
0.875 0.475 0.1
0.875 0.45 0.1
0.875 0.425 0.1
0.875 0.4 0.1
0.875 0.375 0.1
0.875 0.35 0.1
0.875 0.325 0.1
0.875 0.3 0.1
0.875 0.275 0.1
0.875 0.25 0.1
0.875 0.225 0.1
0.875 0.2 0.1
0.875 0.175 0.1
0.875 0.15 0.1
0.875 0.125 0.1
0.875 0.1 0.1
0.875 0.075 0.1
0.875 0.05 0.1
0.875 0.025 0.1
0.85 0.475 0.1
0.85 0.45 0.1
0.85 0.425 0.1
0.85 0.4 0.1
0.85 0.375 0.1
0.85 0.35 0.1
0.85 0.325 0.1
0.85 0.3 0.1
0.85 0.275 0.1
0.85 0.25 0.1
0.85 0.225 0.1
0.85 0.2 0.1
0.85 0.175 0.1
0.85 0.15 0.1
0.85 0.125 0.1
0.85 0.1 0.1
0.85 0.075 0.1
0.85 0.05 0.1
0.85 0.025 0.1
0.825 0.475 0.1
0.825 0.45 0.1
0.825 0.425 0.1
0.825 0.4 0.1
0.825 0.375 0.1
0.825 0.35 0.1
0.825 0.325 0.1
0.825 0.3 0.1
0.825 0.275 0.1
0.825 0.25 0.1
0.825 0.225 0.1
0.825 0.2 0.1
0.825 0.175 0.1
0.825 0.15 0.1
0.825 0.125 0.1
0.825 0.1 0.1
0.825 0.075 0.1
0.825 0.05 0.1
0.825 0.025 0.1
0.8 0.475 0.1
0.8 0.45 0.1
0.8 0.425 0.1
0.8 0.4 0.1
0.8 0.375 0.1
0.8 0.35 0.1
0.8 0.325 0.1
0.8 0.3 0.1
0.8 0.275 0.1
0.8 0.25 0.1
0.8 0.225 0.1
0.8 0.2 0.1
0.8 0.175 0.1
0.8 0.15 0.1
0.8 0.125 0.1
0.8 0.1 0.1
0.8 0.075 0.1
0.8 0.05 0.1
0.8 0.025 0.1
0.775 0.475 0.1
0.775 0.45 0.1
0.775 0.425 0.1
0.775 0.4 0.1
0.775 0.375 0.1
0.775 0.35 0.1
0.775 0.325 0.1
0.775 0.3 0.1
0.775 0.275 0.1
0.775 0.25 0.1
0.775 0.225 0.1
0.775 0.2 0.1
0.775 0.175 0.1
0.775 0.15 0.1
0.775 0.125 0.1
0.775 0.1 0.1
0.775 0.075 0.1
0.775 0.05 0.1
0.775 0.025 0.1
0.75 0.475 0.1
0.75 0.45 0.1
0.75 0.425 0.1
0.75 0.4 0.1
0.75 0.375 0.1
0.75 0.35 0.1
0.75 0.325 0.1
0.75 0.3 0.1
0.75 0.275 0.1
0.75 0.25 0.1
0.75 0.225 0.1
0.75 0.2 0.1
0.75 0.175 0.1
0.75 0.15 0.1
0.75 0.125 0.1
0.75 0.1 0.1
0.75 0.075 0.1
0.75 0.05 0.1
0.75 0.025 0.1
0.725 0.475 0.1
0.725 0.45 0.1
0.725 0.425 0.1
0.725 0.4 0.1
0.725 0.375 0.1
0.725 0.35 0.1
0.725 0.325 0.1
0.725 0.3 0.1
0.725 0.275 0.1
0.725 0.25 0.1
0.725 0.225 0.1
0.725 0.2 0.1
0.725 0.175 0.1
0.725 0.15 0.1
0.725 0.125 0.1
0.725 0.1 0.1
0.725 0.075 0.1
0.725 0.05 0.1
0.725 0.025 0.1
0.7 0.475 0.1
0.7 0.45 0.1
0.7 0.425 0.1
0.7 0.4 0.1
0.7 0.375 0.1
0.7 0.35 0.1
0.7 0.325 0.1
0.7 0.3 0.1
0.7 0.275 0.1
0.7 0.25 0.1
0.7 0.225 0.1
0.7 0.2 0.1
0.7 0.175 0.1
0.7 0.15 0.1
0.7 0.125 0.1
0.7 0.1 0.1
0.7 0.075 0.1
0.7 0.05 0.1
0.7 0.025 0.1
0.675 0.475 0.1
0.675 0.45 0.1
0.675 0.425 0.1
0.675 0.4 0.1
0.675 0.375 0.1
0.675 0.35 0.1
0.675 0.325 0.1
0.675 0.3 0.1
0.675 0.275 0.1
0.675 0.25 0.1
0.675 0.225 0.1
0.675 0.2 0.1
0.675 0.175 0.1
0.675 0.15 0.1
0.675 0.125 0.1
0.675 0.1 0.1
0.675 0.075 0.1
0.675 0.05 0.1
0.675 0.025 0.1
0.65 0.475 0.1
0.65 0.45 0.1
0.65 0.425 0.1
0.65 0.4 0.1
0.65 0.375 0.1
0.65 0.35 0.1
0.65 0.325 0.1
0.65 0.3 0.1
0.65 0.275 0.1
0.65 0.25 0.1
0.65 0.225 0.1
0.65 0.2 0.1
0.65 0.175 0.1
0.65 0.15 0.1
0.65 0.125 0.1
0.65 0.1 0.1
0.65 0.075 0.1
0.65 0.05 0.1
0.65 0.025 0.1
0.625 0.475 0.1
0.625 0.45 0.1
0.625 0.425 0.1
0.625 0.4 0.1
0.625 0.375 0.1
0.625 0.35 0.1
0.625 0.325 0.1
0.625 0.3 0.1
0.625 0.275 0.1
0.625 0.25 0.1
0.625 0.225 0.1
0.625 0.2 0.1
0.625 0.175 0.1
0.625 0.15 0.1
0.625 0.125 0.1
0.625 0.1 0.1
0.625 0.075 0.1
0.625 0.05 0.1
0.625 0.025 0.1
0.6 0.475 0.1
0.6 0.45 0.1
0.6 0.425 0.1
0.6 0.4 0.1
0.6 0.375 0.1
0.6 0.35 0.1
0.6 0.325 0.1
0.6 0.3 0.1
0.6 0.275 0.1
0.6 0.25 0.1
0.6 0.225 0.1
0.6 0.2 0.1
0.6 0.175 0.1
0.6 0.15 0.1
0.6 0.125 0.1
0.6 0.1 0.1
0.6 0.075 0.1
0.6 0.05 0.1
0.6 0.025 0.1
0.575 0.475 0.1
0.575 0.45 0.1
0.575 0.425 0.1
0.575 0.4 0.1
0.575 0.375 0.1
0.575 0.35 0.1
0.575 0.325 0.1
0.575 0.3 0.1
0.575 0.275 0.1
0.575 0.25 0.1
0.575 0.225 0.1
0.575 0.2 0.1
0.575 0.175 0.1
0.575 0.15 0.1
0.575 0.125 0.1
0.575 0.1 0.1
0.575 0.075 0.1
0.575 0.05 0.1
0.575 0.025 0.1
0.55 0.475 0.1
0.55 0.45 0.1
0.55 0.425 0.1
0.55 0.4 0.1
0.55 0.375 0.1
0.55 0.35 0.1
0.55 0.325 0.1
0.55 0.3 0.1
0.55 0.275 0.1
0.55 0.25 0.1
0.55 0.225 0.1
0.55 0.2 0.1
0.55 0.175 0.1
0.55 0.15 0.1
0.55 0.125 0.1
0.55 0.1 0.1
0.55 0.075 0.1
0.55 0.05 0.1
0.55 0.025 0.1
0.525 0.475 0.1
0.525 0.45 0.1
0.525 0.425 0.1
0.525 0.4 0.1
0.525 0.375 0.1
0.525 0.35 0.1
0.525 0.325 0.1
0.525 0.3 0.1
0.525 0.275 0.1
0.525 0.25 0.1
0.525 0.225 0.1
0.525 0.2 0.1
0.525 0.175 0.1
0.525 0.15 0.1
0.525 0.125 0.1
0.525 0.1 0.1
0.525 0.075 0.1
0.525 0.05 0.1
0.525 0.025 0.1
0.5 0.475 0.1
0.5 0.45 0.1
0.5 0.425 0.1
0.5 0.4 0.1
0.5 0.375 0.1
0.5 0.35 0.1
0.5 0.325 0.1
0.5 0.3 0.1
0.5 0.275 0.1
0.5 0.25 0.1
0.5 0.225 0.1
0.5 0.2 0.1
0.5 0.175 0.1
0.5 0.15 0.1
0.5 0.125 0.1
0.5 0.1 0.1
0.5 0.075 0.1
0.5 0.05 0.1
0.5 0.025 0.1
0.475 0.475 0.1
0.475 0.45 0.1
0.475 0.425 0.1
0.475 0.4 0.1
0.475 0.375 0.1
0.475 0.35 0.1
0.475 0.325 0.1
0.475 0.3 0.1
0.475 0.275 0.1
0.475 0.25 0.1
0.475 0.225 0.1
0.475 0.2 0.1
0.475 0.175 0.1
0.475 0.15 0.1
0.475 0.125 0.1
0.475 0.1 0.1
0.475 0.075 0.1
0.475 0.05 0.1
0.475 0.025 0.1
0.45 0.475 0.1
0.45 0.45 0.1
0.45 0.425 0.1
0.45 0.4 0.1
0.45 0.375 0.1
0.45 0.35 0.1
0.45 0.325 0.1
0.45 0.3 0.1
0.45 0.275 0.1
0.45 0.25 0.1
0.45 0.225 0.1
0.45 0.2 0.1
0.45 0.175 0.1
0.45 0.15 0.1
0.45 0.125 0.1
0.45 0.1 0.1
0.45 0.075 0.1
0.45 0.05 0.1
0.45 0.025 0.1
0.425 0.475 0.1
0.425 0.45 0.1
0.425 0.425 0.1
0.425 0.4 0.1
0.425 0.375 0.1
0.425 0.35 0.1
0.425 0.325 0.1
0.425 0.3 0.1
0.425 0.275 0.1
0.425 0.25 0.1
0.425 0.225 0.1
0.425 0.2 0.1
0.425 0.175 0.1
0.425 0.15 0.1
0.425 0.125 0.1
0.425 0.1 0.1
0.425 0.075 0.1
0.425 0.05 0.1
0.425 0.025 0.1
0.4 0.475 0.1
0.4 0.45 0.1
0.4 0.425 0.1
0.4 0.4 0.1
0.4 0.375 0.1
0.4 0.35 0.1
0.4 0.325 0.1
0.4 0.3 0.1
0.4 0.275 0.1
0.4 0.25 0.1
0.4 0.225 0.1
0.4 0.2 0.1
0.4 0.175 0.1
0.4 0.15 0.1
0.4 0.125 0.1
0.4 0.1 0.1
0.4 0.075 0.1
0.4 0.05 0.1
0.4 0.025 0.1
0.375 0.475 0.1
0.375 0.45 0.1
0.375 0.425 0.1
0.375 0.4 0.1
0.375 0.375 0.1
[...]
    <PointData>
      <DataArray type="Float64" NumberOfComponents="3" Name="Velocity" format="ascii">
0 0 0
0 0 0
0 0 0
0 0 0
0 0 0
0 0 0
0 0 0
0 0 0
0 0 0
0 0 0
0 0 0
0 0 0
0 0 0
0 0 0
0 0 0
0 0 0
0 0 0
0 0 0
0 0 0
0 0 0
0 0 0
0 0 0
0 0 0
0 0 0
0 0 0
0 0 0
0 0 0
0 0 0
0 0 0
0 0 0
0 0 0
0 0 0
0 0 0
0 0 0
0 0 0
0 0 0
0 0 0
0 0 0
0 0 0
0 0 0
0 0 0
0 0 0
0 0 0
0 0 0
0 0 0
0 0 0
0 0 0
0 0 0
0 0 0
0 0 0
0 0 0
0 0 0
0 0 0
0 0 0
0 0 0
0 0 0
0 0 0
0 0 0
0 0 0
0 0 0
0 0 0
0 0 0
0 0 0
0 0 0
0 0 0
0 0 0
0 0 0
0 0 0
0 0 0
0 0 0
0 0 0
0 0 0
0 0 0
0 0 0
0 0 0
0 0 0
0 0 0
0 0 0
0 0 0
0 0 0
0 0 0
0 0 0
0 0 0
0 0 0
0 0 0
0 0 0
0 0 0
0 0 0
0 0 0
0 0 0
0 0 0
0 0 0
0 0 0
0 0 0
0 0 0
0 0 0
0 0 0
0 0 0
0 0 0
0 0 0
0 0 0
0 0 0
0 0 0
0 0 0
0 0 0
0 0 0
0 0 0
0 0 0
0 0 0
0 0 0
0 0 0
0 0 0
0 0 0
0 0 0
0 0 0
0 0 0
0 0 0
0 0 0
0 0 0
0 0 0
0 0 0
0 0 0
-0.00283104 -0.0415757 0
-0.00993863 -0.0762533 0
-0.0203777 -0.104952 0
-0.0324825 -0.128253 0
-0.0463077 -0.146348 0
-0.0614344 -0.158848 0
-0.0765159 -0.166373 0
-0.091376 -0.169057 0
-0.105688 -0.167329 0
-0.118851 -0.162024 0
-0.130788 -0.153184 0
-0.14132 -0.141477 0
-0.150319 -0.127224 0
-0.157984 -0.110833 0
-0.164252 -0.0931088 0
-0.169034 -0.0741229 0
-0.172475 -0.0543645 0
-0.174494 -0.0342258 0
-0.175203 -0.0138825 0
-0.174682 0.00618268 0
-0.172947 0.025936 0
-0.170066 0.045301 0
-0.166013 0.0638977 0
-0.160742 0.0816671 0
-0.154318 0.0983112 0
-0.146738 0.113559 0
-0.138061 0.127308 0
-0.128344 0.139026 0
-0.117542 0.148476 0
-0.105811 0.155363 0
-0.0933517 0.159215 0
-0.080176 0.159946 0
-0.066699 0.156948 0
-0.0534172 0.149684 0
-0.0407858 0.137447 0
-0.0288449 0.119794 0
-0.0181473 0.0969817 0
-0.00920069 0.0689961 0
-0.00312727 0.0356942 0
-0.00124499 -0.0203338 0
-0.00591199 -0.0596929 0
-0.0149457 -0.0913401 0
-0.0262853 -0.117323 0
-0.0392549 -0.138037 0
-0.0539053 -0.153392 0
-0.0690788 -0.163373 0
-0.0840733 -0.168485 0
-0.0987326 -0.168877 0
-0.112491 -0.16533 0
-0.125039 -0.158191 0
-0.136289 -0.147826 0
-0.146049 -0.134827 0
-0.154358 -0.119402 0
-0.161343 -0.102286 0
-0.166855 -0.0839172 0
-0.170965 -0.0644564 0
-0.173698 -0.0445025 0
-0.175043 -0.0241891 0
-0.175118 -0.00389283 0
-0.173978 0.016035 0
-0.171658 0.0356595 0
-0.168193 0.0546783 0
-0.163521 0.0728937 0
-0.15766 0.0901739 0
-0.150651 0.10614 0
-0.142502 0.120705 0
-0.133301 0.133492 0
-0.12303 0.144099 0
-0.111728 0.152343 0
-0.0996354 0.15772 0
-0.0867955 0.160031 0
-0.0734081 0.158988 0
-0.0599868 0.153912 0
-0.0470078 0.144295 0
-0.0346652 0.129328 0
-0.0232808 0.109069 0
-0.0133609 0.0836977 0
-0.00569253 0.0531062 0
-0.00290873 0.0167675 0
0 0 0
0 0 0
0 0 0
0 0 0
0 0 0
0 0 0
0 0 0
0 0 0
0 0 0
0 0 0
0 0 0
0 0 0
0 0 0
0 0 0
0 0 0
0 0 0
0 0 0
0 0 0
0 0 0
0 0 0
0 0 0
0 0 0
0 0 0
0 0 0
0 0 0
0 0 0
0 0 0
0 0 0
0 0 0
0 0 0
0 0 0
0 0 0
0 0 0
0 0 0
0 0 0
0 0 0
0 0 0
0 0 0
0 0 0
-0.00441153 -0.0355576 0
-0.00433074 -0.0306168 0
-0.00373554 -0.0257271 0
-0.00247027 -0.0217977 0
-0.00185415 -0.0189397 0
-0.00160731 -0.0163316 0
-0.00145744 -0.0139021 0
-0.00133103 -0.0116563 0
-0.00121045 -0.00959744 0
-0.00109114 -0.00772603 0
-0.000971137 -0.00604257 0
-0.000848765 -0.00454914 0
-0.000722282 -0.00325037 0
-0.00059015 -0.00215374 0
-0.000451793 -0.00126916 0
-0.000309086 -0.000607855 0
-0.000167416 -0.000180244 0
-2.87607e-05 1.96999e-05 0
5.78627e-05 4.92377e-05 0
-0.0106827 -0.0655123 0
-0.0105777 -0.0568782 0
-0.00953788 -0.0493414 0
-0.00750904 -0.0427982 0
-0.00620443 -0.0371591 0
-0.00550148 -0.0319728 0
-0.00499466 -0.0272429 0
-0.00455326 -0.0229287 0
-0.00413712 -0.0190019 0
-0.00373139 -0.0154451 0
-0.00332794 -0.0122492 0
-0.00292025 -0.00941176 0
-0.00250226 -0.00693596 0
-0.00206892 -0.00482977 0
-0.00161777 -0.0031044 0
-0.00115215 -0.00177113 0
-0.000686567 -0.000834621 0
-0.000260123 -0.000276831 0
2.87878e-05 -3.8112e-05 0
-0.0196272 -0.0911317 0
-0.0188428 -0.0798462 0
-0.0172421 -0.0700707 0
-0.01482 -0.0614579 0
-0.012932 -0.0536341 0
-0.0115895 -0.0462816 0
-0.0105134 -0.0395536 0
-0.00956511 -0.0334279 0
-0.00868142 -0.0278623 0
-0.00783052 -0.0228248 0
-0.0069928 -0.018296 0
-0.00615335 -0.0142663 0
-0.00529967 -0.0107342 0
-0.00442206 -0.00770409 0
-0.00351624 -0.00518374 0
-0.00258874 -0.00318052 0
-0.00166689 -0.00169476 0
-0.000817636 -0.000709712 0
-0.000177972 -0.000180112 0
-0.0308104 -0.112171 0
-0.0291165 -0.0989946 0
-0.0268196 -0.0874356 0
-0.0239806 -0.0771232 0
-0.0215745 -0.0676802 0
-0.0195141 -0.0586997 0
-0.0177373 -0.0503939 0
-0.0161396 -0.0427875 0
-0.0146497 -0.0358552 0
-0.0132218 -0.0295668 0
-0.0118241 -0.0238996 0
-0.0104323 -0.0188397 0
-0.00902678 -0.014381 0
-0.00759263 -0.0105235 0
-0.00612361 -0.00727128 0
-0.00462873 -0.00462884 0
-0.00314423 -0.00259718 0
-0.00175285 -0.00116837 0
-0.000612741 -0.000318962 0
-0.043638 -0.128529 0
-0.0409629 -0.114094 0
-0.037976 -0.101281 0
-0.0346133 -0.0896602 0
-0.0316037 -0.079064 0
-0.0288226 -0.0689295 0
-0.0263017 -0.0594618 0
-0.0239791 -0.0507241 0
-0.0217932 -0.0427178 0
-0.0196947 -0.0354256 0
-0.0176446 -0.0288288 0
-0.0156112 -0.0229135 0
-0.0135679 -0.0176715 0
-0.0114949 -0.0131002 0
-0.00938293 -0.00920158 0
-0.00724051 -0.00598054 0
-0.00510614 -0.00344355 0
-0.00306588 -0.00159759 0
-0.0012777 -0.000449354 0
-0.0574757 -0.140248 0
-0.0538186 -0.125162 0
-0.0502244 -0.111632 0
-0.0463242 -0.0991976 0
-0.042605 -0.0878006 0
-0.0391132 -0.0768657 0
-0.035846 -0.0665923 0
-0.0327706 -0.057052 0
-0.029843 -0.0482623 0
-0.0270193 -0.0402188 0
-0.0242589 -0.03291 0
-0.0215257 -0.026325 0
-0.0187879 -0.0204564 0
-0.0160206 -0.0153015 0
-0.0132099 -0.0108631 0
-0.01036 -0.00714956 0
-0.00750411 -0.00417641 0
-0.00471935 -0.00196857 0
-0.0021448 -0.000562725 0
-0.0717122 -0.147498 0
-0.0671712 -0.132254 0
-0.0630432 -0.118473 0
-0.058677 -0.105705 0
-0.0542517 -0.0938725 0
-0.0500479 -0.0824648 0
-0.0460417 -0.0717057 0
-0.0422126 -0.0616667 0
-0.0385308 -0.0523723 0
-0.0349603 -0.0438267 0
-0.0314628 -0.0360257 0
-0.0280002 -0.0289632 0
-0.0245372 -0.0226346 0
-0.0210435 -0.0170399 0
-0.0174989 -0.0121847 0
-0.0138993 -0.0080836 0
-0.0102659 -0.00476282 0
-0.00665655 -0.0022652 0
-0.00317856 -0.000653514 0
-0.0858481 -0.1504 0
-0.080557 -0.13545 0
-0.0759853 -0.121832 0
-0.0712321 -0.109128 0
-0.0661833 -0.0972493 0
-0.0613 -0.0857141 0
-0.0565814 -0.0747786 0
-0.0520198 -0.0645273 0
-0.0475971 -0.0549925 0
-0.0432854 -0.0461856 0
-0.0390501 -0.0381093 0
-0.0348533 -0.0307629 0
-0.0306568 -0.0241464 0
-0.0264251 -0.0182638 0
-0.0221298 -0.0131258 0
-0.0177552 -0.00875404 0
-0.013305 -0.00518572 0
-0.00881047 -0.00247962 0
-0.00433899 -0.000719327 0
-0.0994426 -0.149426 0
-0.0935679 -0.135114 0
-0.0886796 -0.121981 0
-0.0836263 -0.109642 0
-0.0780509 -0.0980214 0
-0.0725561 -0.0866656 0
-0.0671762 -0.0758425 0
-0.0619243 -0.0656471 0
-0.0567954 -0.0561202 0
-0.0517698 -0.0472807 0
-0.0468177 -0.0391384 0
-0.0419024 -0.0316985 0
-0.0369834 -0.0249663 0
-0.0320198 -0.0189509 0
-0.026974 -0.0136689 0
-0.0218156 -0.00914921 0
-0.0165273 -0.00543886 0
-0.0111092 -0.00260942 0
-0.00558415 -0.000759591 0
-0.112204 -0.145044 0
-0.105922 -0.131582 0
-0.100852 -0.119172 0
-0.0955916 -0.10744 0
-0.0895662 -0.0963413 0
-0.0835338 -0.0854352 0
-0.0775606 -0.0749836 0
-0.0716786 -0.0650879 0
-0.0658954 -0.0557972 0
-0.0602008 -0.0471383 0
-0.0545702 -0.0391276 0
-0.0489688 -0.0317768 0
-0.0433546 -0.0250967 0
-0.0376809 -0.0191017 0
-0.0318998 -0.0138143 0
-0.0259652 -0.00926999 0
-0.0198362 -0.00552361 0
-0.0134796 -0.00265583 0
-0.00687215 -0.000774832 0
-0.123918 -0.137492 0
-0.11739 -0.125087 0
-0.112256 -0.11362 0
-0.106864 -0.102743 0
-0.100465 -0.0924146 0
-0.0939833 -0.0821914 0
-0.0874984 -0.0723345 0
-0.0810591 -0.0629528 0
-0.0746868 -0.0541027 0
-0.068381 -0.0458181 0
-0.0621235 -0.0381218 0
-0.0558821 -0.0310312 0
-0.0496131 -0.0245623 0
-0.0432644 -0.0187348 0
-0.0367777 -0.013576 0
-0.0300902 -0.00912657 0
-0.0231368 -0.00544688 0
-0.0158506 -0.00262267 0
-0.00816261 -0.000766304 0
-0.134412 -0.127343 0
-0.127793 -0.116112 0
-0.122686 -0.105738 0
-0.117222 -0.0958951 0
-0.11054 -0.0865028 0
-0.1037 -0.0771403 0
-0.0967886 -0.0680614 0
-0.0898709 -0.0593758 0
-0.082982 -0.0511446 0
-0.0761318 -0.0434066 0
-0.0693086 -0.0361896 0
-0.0624831 -0.0295156 0
-0.0556107 -0.0234054 0
-0.048634 -0.0178824 0
-0.041484 -0.012978 0
-0.0340819 -0.00873607 0
-0.0263386 -0.00521959 0
-0.0181546 -0.0025156 0
-0.00941771 -0.000735774 0
-0.143531 -0.114892 0
-0.136997 -0.105027 0
-0.132001 -0.0958684 0
-0.126516 -0.0871818 0
-0.119638 -0.0788603 0
-0.112521 -0.0705016 0
-0.105264 -0.0623492 0
-0.0979473 -0.0545116 0
-0.0906176 -0.0470512 0
-0.0832945 -0.0400094 0
-0.0759732 -0.0334172 0
-0.0686272 -0.0272998 0
-0.0612114 -0.0216811 0
-0.0536633 -0.0165874 0
-0.0459041 -0.0120522 0
-0.0378393 -0.00812069 0
-0.0293578 -0.00485561 0
-0.0203296 -0.00234163 0
-0.0106029 -0.000685372 0
-0.151199 -0.100439 0
-0.144848 -0.0920944 0
-0.140081 -0.0843119 0
-0.134626 -0.076889 0
-0.12763 -0.0697415 0
-0.120313 -0.0624988 0
-0.112788 -0.0553922 0
-0.105149 -0.0485269 0
-0.0974541 -0.0419641 0
-0.0897319 -0.0357456 0
-0.0819837 -0.0299034 0
-0.0741861 -0.0244643 0
-0.0662934 -0.0194539 0
-0.0582386 -0.0148998 0
-0.0499342 -0.0108358 0
-0.0412715 -0.00730622 0
-0.0321191 -0.00437084 0
-0.0223201 -0.00210864 0
-0.0116874 -0.000617478 0
-0.157449 -0.084572 0
-0.151306 -0.0777703 0
-0.14683 -0.0714238 0
-0.141474 -0.0653203 0
-0.134425 -0.0594031 0
-0.126975 -0.0533559 0
-0.119252 -0.0473876 0
-0.111362 -0.0415941 0
-0.103375 -0.0360324 0
-0.0953277 -0.0307423 0
-0.0872258 -0.025755 0
-0.0790489 -0.0210973 0
-0.0707508 -0.0167949 0
-0.0622609 -0.0128748 0
-0.0534837 -0.00936969 0
-0.0442986 -0.00632083 0
-0.0345567 -0.00378254 0
-0.0240776 -0.00182517 0
-0.0126447 -0.000534634 0
-0.162324 -0.0675405 0
-0.156398 -0.0623318 0
-0.152216 -0.0574501 0
-0.14702 -0.0527105 0
-0.139961 -0.0480778 0
-0.132429 -0.0432898 0
-0.124569 -0.0385317 0
-0.116495 -0.033888 0
-0.108287 -0.0294091 0
-0.0999867 -0.0251313 0
-0.0916048 -0.0210837 0
-0.0831228 -0.0172914 0
-0.0744945 -0.0137786 0
-0.065646 -0.0105706 0
-0.0564758 -0.00769701 0
-0.0468531 -0.00519415 0
-0.0366148 -0.00310873 0
-0.0255616 -0.00150007 0
-0.0134525 -0.000439467 0
-0.165878 -0.0497055 0
-0.16017 -0.0460968 0
-0.156245 -0.0426637 0
-0.151216 -0.0393049 0
-0.14418 -0.035996 0
-0.136614 -0.0325148 0
-0.128672 -0.0290197 0
-0.120478 -0.0255831 0
-0.112116 -0.0222482 0
-0.103634 -0.0190464 0
-0.0950453 -0.0160032 0
-0.0863337 -0.0131413 0
-0.0774527 -0.0104818 0
-0.0683263 -0.00804707 0
-0.0588484 -0.00586198 0
-0.0488804 -0.00395649 0
-0.0382486 -0.00236783 0
-0.0267392 -0.00114231 0
-0.014093 -0.000334631 0
-0.168157 -0.0314246 0
-0.162668 -0.0293644 0
-0.158941 -0.0273549 0
-0.154045 -0.0253697 0
-0.147051 -0.0233939 0
-0.13949 -0.021244 0
-0.131516 -0.0190446 0
-0.123261 -0.0168525 0
-0.11481 -0.0147028 0
-0.106214 -0.0126209 0
-0.0974913 -0.0106278 0
-0.0886257 -0.00874219 0
-0.0795711 -0.00698177 0
-0.0702503 -0.00536432 0
-0.0605541 -0.00390911 0
-0.0503391 -0.00263828 0
-0.0394241 -0.00157826 0
-0.0275859 -0.000760873 0
-0.0145528 -0.000222765 0
-0.169184 -0.0128715 0
-0.163886 -0.0123172 0
-0.160287 -0.0117316 0
-0.155493 -0.0111301 0
-0.148558 -0.0104952 0
-0.141034 -0.00968521 0
-0.133076 -0.008795 0
-0.124812 -0.00786615 0
-0.116333 -0.00692382 0
-0.107692 -0.00598663 0
-0.0989058 -0.00507024 0
-0.0899615 -0.00418874 0
-0.080813 -0.00335519 0
-0.0713829 -0.00258224 0
-0.0615607 -0.0018826 0
-0.0512007 -0.0012697 0
-0.0401182 -0.000758238 0
-0.0280849 -0.0003646 0
-0.0148231 -0.00010646 0
-0.168944 0.00562188 0
-0.163783 0.00474303 0
-0.160267 0.00392795 0
-0.155557 0.00317028 0
-0.148699 0.00248371 0
-0.141244 0.00196297 0
-0.133342 0.00154678 0
-0.125121 0.00121108 0
-0.116673 0.000941564 0
-0.10805 0.000727242 0
-0.0992703 0.000558389 0
-0.0903218 0.000426105 0
-0.0811592 0.000322376 0
-0.0717056 0.000240256 0
-0.061851 0.000174064 0
-0.0514501 0.0001196 0
-0.0403185 7.43747e-05 0
-0.0282275 3.78675e-05 0
-0.0148991 1.17593e-05 0
-0.167417 0.0238633 0
-0.162339 0.0215994 0
-0.15889 0.0194204 0
-0.154261 0.0173328 0
-0.147494 0.015346 0
-0.140132 0.0135126 0
-0.132322 0.0118057 0
-0.124193 0.0102193 0
-0.115831 0.00875001 0
-0.107289 0.00739468 0
-0.0985844 0.00614964 0
-0.0897052 0.00501133 0
-0.0806074 0.00397698 0
-0.0712156 0.00304549 0
-0.0614224 0.00221835 0
-0.0510851 0.00150066 0
-0.0400232 0.000902156 0
-0.0280125 0.00043812 0
-0.0147804 0.000129444 0
-0.164589 0.0417186 0
-0.159557 0.0380957 0
-0.156175 0.0345745 0
-0.15162 0.0311739 0
-0.144959 0.0279032 0
-0.137717 0.024781 0
-0.13004 0.0218112 0
-0.122049 0.0190026 0
-0.113828 0.0163618 0
-0.105428 0.0138928 0
-0.0968654 0.0115977 0
-0.0881276 0.00947819 0
-0.0791722 0.00753651 0
-0.0699265 0.00577724 0
-0.0602867 0.00420881 0
-0.0501161 0.00284527 0
-0.0392409 0.00170817 0
-0.0274463 0.000827995 0
-0.0144706 0.000244221 0
-0.160512 0.0588632 0
-0.155506 0.0539523 0
-0.152152 0.0491447 0
-0.14766 0.0444679 0
-0.141125 0.0399532 0
-0.134036 0.035584 0
-0.12653 0.0313946 0
-0.118726 0.0274083 0
-0.110701 0.0236405 0
-0.102503 0.0201018 0
-0.094148 0.0167996 0
-0.0856221 0.0137403 0
-0.0768848 0.0109308 0
-0.0678668 0.00838081 0
-0.0584701 0.00610514 0
-0.0485657 0.00412604 0
-0.0379905 0.00247595 0
-0.0265428 0.00119957 0
-0.0139774 0.00035379 0
-0.15523 0.0751649 0
-0.150244 0.0689753 0
-0.146869 0.0629084 0
-0.142434 0.0569984 0
-0.136044 0.0512937 0
-0.12914 0.045737 0
-0.121848 0.0403887 0
-0.114278 0.0352859 0
-0.106504 0.0304523 0
-0.098568 0.0259046 0
-0.0904839 0.0216549 0
-0.0822383 0.0177136 0
-0.0737921 0.0140916 0
-0.0650805 0.0108031 0
-0.0560124 0.00786819 0
-0.0464688 0.00531633 0
-0.0363003 0.00318952 0
-0.0253226 0.00154514 0
-0.013312 0.000455916 0
-0.148761 0.0903649 0
-0.143794 0.0829119 0
-0.140375 0.0756174 0
-0.136005 0.068544 0
-0.129785 0.0617258 0
-0.123099 0.0550587 0
-0.116062 0.0486294 0
-0.108776 0.0424881 0
-0.101307 0.0366668 0
-0.0936914 0.0311874 0
-0.0859411 0.0260661 0
-0.0780418 0.0213166 0
-0.0699567 0.016953 0
-0.0616258 0.0129926 0
-0.0529664 0.00946002 0
-0.0438717 0.0063903 0
-0.0342083 0.00383333 0
-0.0238134 0.0018572 0
-0.0124896 0.000548414 0
-0.141155 0.104205 0
-0.136199 0.0955272 0
-0.132749 0.0870644 0
-0.128467 0.0789068 0
-0.122435 0.0710608 0
-0.116 0.0633735 0
-0.109261 0.0559561 0
-0.102307 0.0488709 0
-0.0951965 0.0421566 0
-0.0879596 0.0358395 0
-0.0806037 0.0299389 0
-0.073114 0.0244707 0
-0.0654558 0.0194511 0
-0.0575749 0.0148997 0
-0.0493979 0.010844 0
-0.0408317 0.00732292 0
-0.0317618 0.00439227 0
-0.0220497 0.00212845 0
-0.011529 0.000629145 0
-0.13244 0.116535 0
-0.127514 0.106655 0
-0.124065 0.0970832 0
-0.119895 0.0879077 0
-0.114084 0.079114 0
-0.10794 0.070508 0
-0.101545 0.0622117 0
-0.0949752 0.0542941 0
-0.0882772 0.0467986 0
-0.0814749 0.0397544 0
-0.0745714 0.0331827 0
-0.0675509 0.0271005 0
-0.060381 0.021525 0
-0.0530133 0.0164769 0
-0.0453847 0.0119849 0
-0.037417 0.00809007 0
-0.0290165 0.00485171 0
-0.0200722 0.00235175 0
-0.0104523 0.000696004 0
-0.122682 0.12694 0
-0.117835 0.115956 0
-0.114432 0.105391 0
-0.110389 0.0953084 0
-0.104845 0.0856876 0
-0.0990383 0.0762888 0
-0.0930367 0.0672422 0
-0.0869014 0.0586221 0
-0.080669 0.0504748 0
-0.0743554 0.0428308 0
-0.0679591 0.0357118 0
-0.0614631 0.029135 0
-0.054837 0.0231174 0
-0.0480387 0.0176794 0
-0.0410156 0.0128494 0
-0.0337054 0.00866875 0
-0.0260366 0.00519758 0
-0.0179278 0.00252015 0
-0.00928541 0.000746919 0
-0.111989 0.1352 0
-0.107302 0.123208 0
-0.103988 0.111762 0
-0.100097 0.1009 0
-0.0948606 0.0905929 0
-0.0894361 0.0805479 0
-0.0838758 0.0708998 0
-0.0782254 0.0617262 0
-0.0725094 0.0530744 0
-0.0667352 0.0449745 0
-0.0608963 0.0374474 0
-0.0549743 0.0305092 0
-0.0489409 0.0241757 0
-0.04276 0.018466 0
-0.0363897 0.0134068 0
-0.0297839 0.00903751 0
-0.0228938 0.00541652 0
-0.0156691 0.00262698 0
-0.00805713 0.000779853 0
-0.100486 0.141057 0
-0.0960681 0.128171 0
-0.092892 0.115989 0
-0.0891748 0.1045 0
-0.0842905 0.0936544 0
-0.0792942 0.0831251 0
-0.0742237 0.0730448 0
-0.0691064 0.0634874 0
-0.0639536 0.054497 0
-0.0587641 0.0461016 0
-0.0535265 0.0383199 0
-0.0482208 0.0311662 0
-0.0428208 0.0246543 0
-0.0372961 0.0188009 0
-0.031615 0.0136299 0
-0.0257471 0.00917711 0
-0.0196664 0.00549633 0
-0.013354 0.00266593 0
-0.00679953 0.000792824 0
-0.0883879 0.144092 0
-0.084361 0.13052 0
-0.0813627 0.11781 0
-0.0778204 0.105885 0
-0.07332 0.094685 0
-0.0687999 0.0838662 0
-0.0642656 0.0735503 0
-0.059724 0.0638013 0
-0.055174 0.0546572 0
-0.0506066 0.0461423 0
-0.0460056 0.0382727 0
-0.0413496 0.0310604 0
-0.036614 0.0245167 0
-0.0317738 0.0186556 0
-0.0268064 0.0134969 0
-0.0216961 0.00907156 0
-0.0164383 0.00542642 0
-0.0110448 0.0026313 0
-0.0055474 0.000783943 0
-0.0759583 0.144117 0
-0.0724518 0.130061 0
-0.0696339 0.117023 0
-0.0662547 0.104847 0
-0.0621768 0.0935111 0
-0.0581747 0.0826371 0
-0.0542123 0.072312 0
-0.0502779 0.0625857 0
-0.0463595 0.0534901 0
-0.0424405 0.0450459 0
-0.0385005 0.0372665 0
-0.0345164 0.0301614 0
-0.030465 0.0237394 0
-0.0263255 0.0180114 0
-0.0220836 0.0129933 0
-0.017736 0.00870975 0
-0.0132973 0.00519884 0
-0.00880711 0.00251837 0
-0.00433784 0.000751489 0
-0.0635341 0.140754 0
-0.0606019 0.126502 0
-0.0579233 0.113369 0
-0.0547264 0.101196 0
-0.0511274 0.0900066 0
-0.0476686 0.0793463 0
-0.0442952 0.0692604 0
-0.0409838 0.0597882 0
-0.0377116 0.0509577 0
-0.0344541 0.0427862 0
-0.031186 0.035284 0
-0.0278826 0.0284582 0
-0.0245218 0.0223154 0
-0.0210863 0.0168636 0
-0.0175679 0.012115 0
-0.0139733 0.0080876 0
-0.0103325 0.00480965 0
-0.00670842 0.00232405 0
-0.00320947 0.000694048 0
-0.0514792 0.13355 0
-0.0490668 0.119513 0
-0.0464904 0.106663 0
-0.043556 0.0948574 0
-0.0404625 0.0841303 0
-0.0375402 0.0739582 0
-0.0347536 0.0643668 0
-0.0320662 0.0553912 0
-0.0294404 0.047054 0
-0.026842 0.0393668 0
-0.024241 0.0323357 0
-0.0216116 0.0259652 0
-0.0189325 0.0202598 0
-0.0161894 0.0152259 0
-0.0133781 0.0108723 0
-0.0105119 0.00721141 0
-0.00763105 0.00426115 0
-0.00481538 0.002048 0
-0.00220131 0.000610782 0
-0.0400161 0.122129 0
-0.0381461 0.108942 0
-0.0356846 0.0969324 0
-0.0330294 0.0859016 0
-0.0304256 0.0758998 0
-0.028029 0.0664707 0
-0.0258253 0.0576353 0
-0.0237544 0.0494121 0
-0.021761 0.0418086 0
-0.019802 0.0348264 0
-0.0178448 0.0284655 0
-0.015864 0.0227274 0
-0.0138402 0.0176157 0
-0.0117611 0.013136 0
-0.00962498 0.0092955 0
-0.00744773 0.00610232 0
-0.00527352 0.00356531 0
-0.00319031 0.00169456 0
-0.00135089 0.000501961 0
-0.0293654 0.10638 0
-0.0281524 0.0947044 0
-0.025845 0.0840642 0
-0.023364 0.0742364 0
-0.0212267 0.0652645 0
-0.0193752 0.0568788 0
-0.0177581 0.0490971 0
-0.0162864 0.0419071 0
-0.0148928 0.0352938 0
-0.0135319 0.0292458 0
-0.0121729 0.0237573 0
-0.0107937 0.0188277 0
-0.00937789 0.0144608 0
-0.00791542 0.010663 0
-0.00640524 0.00744172 0
-0.00486199 0.004803 0
-0.00332708 0.00274915 0
-0.0018856 0.00127612 0
-0.000691154 0.000370131 0
-0.0196842 0.0863424 0
-0.0192107 0.076729 0
-0.0171996 0.0678381 0
-0.0148615 0.0596417 0
-0.0131673 0.0521423 0
-0.0118782 0.0452047 0
-0.0108333 0.0388329 0
-0.00991637 0.0329871 0
-0.00906061 0.0276345 0
-0.00822783 0.0227557 0
-0.00739432 0.0183425 0
-0.00654379 0.0143944 0
-0.00566435 0.0109163 0
-0.0047483 0.00791677 0
-0.00379434 0.00540485 0
-0.00281295 0.00338716 0
-0.00183643 0.00186321 0
-0.000935322 0.000819811 0
-0.000243451 0.000221783 0
-0.0113998 0.0621252 0
-0.0114603 0.0551671 0
-0.00989425 0.0483384 0
-0.00787653 0.0421472 0
-0.00665393 0.036614 0
-0.0059085 0.0315904 0
-0.00536859 0.0270174 0
-0.00491363 0.0228384 0
-0.00449331 0.0190196 0
-0.00408375 0.0155442 0
-0.00367137 0.0124065 0
-0.00324692 0.00960824 0
-0.00280336 0.00715589 0
-0.00233565 0.00505924 0
-0.00184216 0.00332918 0
-0.00132802 0.00197423 0
-0.000812499 0.00099508 0
-0.000342959 0.000377292 0
-1.2218e-05 7.95561e-05 0
-0.00520813 0.033964 0
-0.00505384 0.0301716 0
-0.00403202 0.0257826 0
-0.00277683 0.0220597 0
-0.00213684 0.0190231 0
-0.00185607 0.016362 0
-0.00168175 0.0139458 0