<?xml version="1.0"?>
<VTKFile type="UnstructuredGrid">
  <UnstructuredGrid>
  <Piece NumberOfPoints="5412"  NumberOfCells="2638">
    <Points>
      <DataArray type="Float64" NumberOfComponents="3" format="ascii">
8.5 7.5 0.1
9 8 0.1
8.5 8.5 0.1
8 8 0.1
8.5 6 0.1
10.5 8 0.1
8.5 10 0.1
6.5 8 0.1
8.5 5 0.1
11.5 8 0.1
8.5 11 0.1
5.5 8 0.1
8.53923 7.50154 0.1
8.57822 7.50616 0.1
8.61672 7.51382 0.1
8.65451 7.52447 0.1
8.69134 7.53806 0.1
8.727 7.5545 0.1
8.76125 7.57368 0.1
8.79389 7.59549 0.1
8.82472 7.6198 0.1
8.85355 7.64645 0.1
8.8802 7.67528 0.1
8.90451 7.70611 0.1
8.92632 7.73875 0.1
8.9455 7.773 0.1
8.96194 7.80866 0.1
8.97553 7.84549 0.1
8.98618 7.88328 0.1
8.99384 7.92178 0.1
8.99846 7.96077 0.1
8.51963 7.50039 0.1
8.55877 7.50347 0.1
8.59755 7.50961 0.1
8.63572 7.51877 0.1
8.67306 7.5309 0.1
8.70933 7.54593 0.1
8.74431 7.56375 0.1
8.77779 7.58427 0.1
8.80955 7.60734 0.1
8.8394 7.63284 0.1
8.86716 7.6606 0.1
8.89266 7.69045 0.1
8.91573 7.72221 0.1
8.93625 7.75569 0.1
8.95407 7.79067 0.1
8.9691 7.82694 0.1
8.98123 7.86428 0.1
8.99039 7.90245 0.1
8.99653 7.94123 0.1
8.99961 7.98037 0.1
8.99846 8.03923 0.1
8.99384 8.07822 0.1
8.98618 8.11672 0.1
8.97553 8.15451 0.1
8.96194 8.19134 0.1
8.9455 8.227 0.1
8.92632 8.26125 0.1
8.90451 8.29389 0.1
8.8802 8.32472 0.1
8.85355 8.35355 0.1
8.82472 8.3802 0.1
8.79389 8.40451 0.1
8.76125 8.42632 0.1
8.727 8.4455 0.1
8.69134 8.46194 0.1
8.65451 8.47553 0.1
8.61672 8.48618 0.1
8.57822 8.49384 0.1
8.53923 8.49846 0.1
8.99961 8.01963 0.1
8.99653 8.05877 0.1
8.99039 8.09755 0.1
8.98123 8.13572 0.1
8.9691 8.17306 0.1
8.95407 8.20933 0.1
8.93625 8.24431 0.1
8.91573 8.27779 0.1
8.89266 8.30955 0.1
8.86716 8.3394 0.1
8.8394 8.36716 0.1
8.80955 8.39266 0.1
8.77779 8.41573 0.1
8.74431 8.43625 0.1
8.70933 8.45407 0.1
8.67306 8.4691 0.1
8.63572 8.48123 0.1
8.59755 8.49039 0.1
8.55877 8.49653 0.1
8.51963 8.49961 0.1
8.46077 8.49846 0.1
8.42178 8.49384 0.1
8.38328 8.48618 0.1
8.34549 8.47553 0.1
8.30866 8.46194 0.1
8.273 8.4455 0.1
8.23875 8.42632 0.1
8.20611 8.40451 0.1
8.17528 8.3802 0.1
8.14645 8.35355 0.1
8.1198 8.32472 0.1
8.09549 8.29389 0.1
8.07368 8.26125 0.1
8.0545 8.227 0.1
8.03806 8.19134 0.1
8.02447 8.15451 0.1
8.01382 8.11672 0.1
8.00616 8.07822 0.1
8.00154 8.03923 0.1
8.48037 8.49961 0.1
8.44123 8.49653 0.1
8.40245 8.49039 0.1
8.36428 8.48123 0.1
8.32694 8.4691 0.1
8.29067 8.45407 0.1
8.25569 8.43625 0.1
8.22221 8.41573 0.1
8.19045 8.39266 0.1
8.1606 8.36716 0.1
8.13284 8.3394 0.1
8.10734 8.30955 0.1
8.08427 8.27779 0.1
8.06375 8.24431 0.1
8.04593 8.20933 0.1
8.0309 8.17306 0.1
8.01877 8.13572 0.1
8.00961 8.09755 0.1
8.00347 8.05877 0.1
8.00039 8.01963 0.1
8.00154 7.96077 0.1
8.00616 7.92178 0.1
8.01382 7.88328 0.1
8.02447 7.84549 0.1
8.03806 7.80866 0.1
8.0545 7.773 0.1
8.07368 7.73875 0.1
8.09549 7.70611 0.1
8.1198 7.67528 0.1
8.14645 7.64645 0.1
8.17528 7.6198 0.1
8.20611 7.59549 0.1
8.23875 7.57368 0.1
8.273 7.5545 0.1
8.30866 7.53806 0.1
8.34549 7.52447 0.1
8.38328 7.51382 0.1
8.42178 7.50616 0.1
8.46077 7.50154 0.1
8.00039 7.98037 0.1
8.00347 7.94123 0.1
8.00961 7.90245 0.1
8.01877 7.86428 0.1
8.0309 7.82694 0.1
8.04593 7.79067 0.1
8.06375 7.75569 0.1
8.08427 7.72221 0.1
8.10734 7.69045 0.1
8.13284 7.6606 0.1
8.1606 7.63284 0.1
8.19045 7.60734 0.1
8.22221 7.58427 0.1
8.25569 7.56375 0.1
8.29067 7.54593 0.1
8.32694 7.5309 0.1
8.36428 7.51877 0.1
8.40245 7.50961 0.1
8.44123 7.50347 0.1
8.48037 7.50039 0.1
8.72393 6.01258 0.1
8.94504 6.05014 0.1
9.16056 6.11223 0.1
9.36777 6.19806 0.1
9.56406 6.30655 0.1
9.74698 6.43634 0.1
9.91421 6.58579 0.1
10.0637 6.75302 0.1
10.1934 6.93594 0.1
10.3019 7.13223 0.1
10.3878 7.33944 0.1
10.4499 7.55496 0.1
10.4874 7.77607 0.1
8.61214 6.00315 0.1
8.83501 6.02826 0.1
9.05367 6.07817 0.1
9.26537 6.15224 0.1
9.46744 6.24955 0.1
9.65734 6.36888 0.1
9.83269 6.50872 0.1
9.99128 6.66731 0.1
10.1311 6.84266 0.1
10.2504 7.03256 0.1
10.3478 7.23463 0.1
10.4218 7.44633 0.1
10.4717 7.66499 0.1
10.4969 7.88786 0.1
10.4874 8.22393 0.1
10.4499 8.44504 0.1
10.3878 8.66056 0.1
10.3019 8.86777 0.1
10.1934 9.06406 0.1
10.0637 9.24698 0.1
9.91421 9.41421 0.1
9.74698 9.56366 0.1
9.56406 9.69345 0.1
9.36777 9.80194 0.1
9.16056 9.88777 0.1
8.94504 9.94986 0.1
8.72393 9.98742 0.1
10.4969 8.11214 0.1
10.4717 8.33501 0.1
10.4218 8.55367 0.1
10.3478 8.76537 0.1
10.2504 8.96744 0.1
10.1311 9.15734 0.1
9.99128 9.33269 0.1
9.83269 9.49128 0.1
9.65734 9.63112 0.1
9.46744 9.75045 0.1
9.26537 9.84776 0.1
9.05367 9.92183 0.1
8.83501 9.97174 0.1
8.61214 9.99685 0.1
8.27607 9.98742 0.1
8.05496 9.94986 0.1
7.83944 9.88777 0.1
7.63223 9.80194 0.1
7.43594 9.69345 0.1
7.25302 9.56366 0.1
7.08579 9.41421 0.1
6.93634 9.24698 0.1
6.80655 9.06406 0.1
6.69806 8.86777 0.1
6.61223 8.66056 0.1
6.55014 8.44504 0.1
6.51258 8.22393 0.1
8.38786 9.99685 0.1
8.16499 9.97174 0.1
7.94633 9.92183 0.1
7.73463 9.84776 0.1
7.53256 9.75045 0.1
7.34266 9.63112 0.1
7.16731 9.49128 0.1
7.00872 9.33269 0.1
6.86888 9.15734 0.1
6.74955 8.96744 0.1
6.65224 8.76537 0.1
6.57817 8.55367 0.1
6.52826 8.33501 0.1
6.50315 8.11214 0.1
6.51258 7.77607 0.1
6.55014 7.55496 0.1
6.61223 7.33944 0.1
6.69806 7.13223 0.1
6.80655 6.93594 0.1
6.93634 6.75302 0.1
7.08579 6.58579 0.1
7.25302 6.43634 0.1
7.43594 6.30655 0.1
7.63223 6.19806 0.1
7.83944 6.11223 0.1
8.05496 6.05014 0.1
8.27607 6.01258 0.1
6.50315 7.88786 0.1
6.52826 7.66499 0.1
6.57817 7.44633 0.1
6.65224 7.23463 0.1
6.74955 7.03256 0.1
6.86888 6.84266 0.1
7.00872 6.66731 0.1
7.16731 6.50872 0.1
7.34266 6.36888 0.1
7.53256 6.24955 0.1
7.73463 6.15224 0.1
7.94633 6.07817 0.1
8.16499 6.02826 0.1
8.38786 6.00315 0.1
8.83589 5.01886 0.1
9.16756 5.07522 0.1
9.49084 5.16835 0.1
9.80165 5.29709 0.1
10.0961 5.45983 0.1
10.3705 5.65451 0.1
10.6213 5.87868 0.1
10.8455 6.12953 0.1
11.0402 6.4039 0.1
11.2029 6.69835 0.1
11.3316 7.00916 0.1
11.4248 7.33244 0.1
11.4811 7.66411 0.1
8.66821 5.00472 0.1
9.00252 5.04239 0.1
9.33051 5.11725 0.1
9.64805 5.22836 0.1
9.95116 5.37433 0.1
10.236 5.55332 0.1
10.499 5.76307 0.1
10.7369 6.00096 0.1
10.9467 6.26399 0.1
11.1257 6.54884 0.1
11.2716 6.85195 0.1
11.3828 7.16949 0.1
11.4576 7.49748 0.1
11.4953 7.83179 0.1
11.4811 8.33589 0.1
11.4248 8.66756 0.1
11.3316 8.99084 0.1
11.2029 9.30165 0.1
11.0402 9.5961 0.1
10.8455 9.87047 0.1
10.6213 10.1213 0.1
10.3705 10.3455 0.1
10.0961 10.5402 0.1
9.80165 10.7029 0.1
9.49084 10.8316 0.1
9.16756 10.9248 0.1
8.83589 10.9811 0.1
11.4953 8.16821 0.1
11.4576 8.50252 0.1
11.3828 8.83051 0.1
11.2716 9.14805 0.1
11.1257 9.45116 0.1
10.9467 9.73601 0.1
10.7369 9.99904 0.1
10.499 10.2369 0.1
10.236 10.4467 0.1
9.95116 10.6257 0.1
9.64805 10.7716 0.1
9.33051 10.8828 0.1
9.00252 10.9576 0.1
8.66821 10.9953 0.1
8.16411 10.9811 0.1
7.83244 10.9248 0.1
7.50916 10.8316 0.1
7.19835 10.7029 0.1
6.9039 10.5402 0.1
6.62953 10.3455 0.1
6.37868 10.1213 0.1
6.15451 9.87047 0.1
5.95983 9.5961 0.1
5.79709 9.30165 0.1
5.66835 8.99084 0.1
5.57522 8.66756 0.1
5.51886 8.33589 0.1
8.33179 10.9953 0.1
7.99748 10.9576 0.1
7.66949 10.8828 0.1
7.35195 10.7716 0.1
7.04884 10.6257 0.1
6.76399 10.4467 0.1
6.50096 10.2369 0.1
6.26307 9.99904 0.1
6.05332 9.73601 0.1
5.87433 9.45116 0.1
5.72836 9.14805 0.1
5.61725 8.83051 0.1
5.54239 8.50252 0.1
5.50472 8.16821 0.1
5.51886 7.66411 0.1
5.57522 7.33244 0.1
5.66835 7.00916 0.1
5.79709 6.69835 0.1
5.95983 6.4039 0.1
6.15451 6.12953 0.1
6.37868 5.87868 0.1
6.62953 5.65451 0.1
6.9039 5.45983 0.1
7.19835 5.29709 0.1
7.50916 5.16835 0.1
7.83244 5.07522 0.1
8.16411 5.01886 0.1
5.50472 7.83179 0.1
5.54239 7.49748 0.1
5.61725 7.16949 0.1
5.72836 6.85195 0.1
5.87433 6.54884 0.1
6.05332 6.26399 0.1
6.26307 6.00096 0.1
6.50096 5.76307 0.1
6.76399 5.55332 0.1
7.04884 5.37433 0.1
7.35195 5.22836 0.1
7.66949 5.11725 0.1
7.99748 5.04239 0.1
8.33179 5.00472 0.1
8.5 6.1 0.1
8.5 6.2 0.1
8.5 6.3 0.1
8.5 6.4 0.1
8.5 6.5 0.1
8.5 6.6 0.1
8.5 6.7 0.1
8.5 6.8 0.1
8.5 6.9 0.1
8.5 7 0.1
8.5 7.1 0.1
8.5 7.2 0.1
8.5 7.3 0.1
8.5 7.4 0.1
8.5 6.05 0.1
8.5 6.15 0.1
8.5 6.25 0.1
8.5 6.35 0.1
8.5 6.45 0.1
8.5 6.55 0.1
8.5 6.65 0.1
8.5 6.75 0.1
8.5 6.85 0.1
8.5 6.95 0.1
8.5 7.05 0.1
8.5 7.15 0.1
8.5 7.25 0.1
8.5 7.35 0.1
8.5 7.45 0.1
9.1 8 0.1
9.2 8 0.1
9.3 8 0.1
9.4 8 0.1
9.5 8 0.1
9.6 8 0.1
9.7 8 0.1
9.8 8 0.1
9.9 8 0.1
10 8 0.1
10.1 8 0.1
10.2 8 0.1
10.3 8 0.1
10.4 8 0.1
9.05 8 0.1
9.15 8 0.1
9.25 8 0.1
9.35 8 0.1
9.45 8 0.1
9.55 8 0.1
9.65 8 0.1
9.75 8 0.1
9.85 8 0.1
9.95 8 0.1
10.05 8 0.1
10.15 8 0.1
10.25 8 0.1
10.35 8 0.1
10.45 8 0.1
8.5 8.6 0.1
8.5 8.7 0.1
8.5 8.8 0.1
8.5 8.9 0.1
8.5 9 0.1
8.5 9.1 0.1
8.5 9.2 0.1
8.5 9.3 0.1
8.5 9.4 0.1
8.5 9.5 0.1
8.5 9.6 0.1
8.5 9.7 0.1
8.5 9.8 0.1
8.5 9.9 0.1
8.5 8.55 0.1
8.5 8.65 0.1
8.5 8.75 0.1
8.5 8.85 0.1
8.5 8.95 0.1
8.5 9.05 0.1
8.5 9.15 0.1
8.5 9.25 0.1
8.5 9.35 0.1
8.5 9.45 0.1
8.5 9.55 0.1
8.5 9.65 0.1
8.5 9.75 0.1
8.5 9.85 0.1
8.5 9.95 0.1
6.6 8 0.1
6.7 8 0.1
6.8 8 0.1
6.9 8 0.1
7 8 0.1
7.1 8 0.1
7.2 8 0.1
7.3 8 0.1
7.4 8 0.1
7.5 8 0.1
7.6 8 0.1
7.7 8 0.1
7.8 8 0.1
7.9 8 0.1
6.55 8 0.1
6.65 8 0.1
6.75 8 0.1
6.85 8 0.1
6.95 8 0.1
7.05 8 0.1
7.15 8 0.1
7.25 8 0.1
7.35 8 0.1
7.45 8 0.1
7.55 8 0.1
7.65 8 0.1
7.75 8 0.1
7.85 8 0.1
7.95 8 0.1
8.5 5.33333 0.1
8.5 5.66667 0.1
8.5 5.16667 0.1
8.5 5.5 0.1
8.5 5.83333 0.1
10.8333 8 0.1
11.1667 8 0.1
10.6667 8 0.1
11 8 0.1
11.3333 8 0.1
8.5 10.3333 0.1
8.5 10.6667 0.1
8.5 10.1667 0.1
8.5 10.5 0.1
8.5 10.8333 0.1
5.83333 8 0.1
6.16667 8 0.1
5.66667 8 0.1
6 8 0.1
6.33333 8 0.1
9.42912 7.36778 0.1
8.98107 7.14335 0.1
9.12034 7.43554 0.1
9.01433 6.66213 0.1
9.17936 7.68419 0.1
9.85922 7.57796 0.1
8.76256 7.28829 0.1
9.38426 6.90812 0.1
8.92185 7.46489 0.1
9.02088 7.58931 0.1
9.52889 7.66584 0.1
8.77428 6.9572 0.1
9.79217 7.11621 0.1
9.14334 7.82286 0.1
9.23019 7.21456 0.1
8.76547 7.42416 0.1
8.78426 6.45 0.1
10.05 7.73427 0.1
9.02751 7.71032 0.1
9.75 7.78105 0.1
8.64858 7.43517 0.1
9.37911 7.79108 0.1
9.35145 7.59348 0.1
8.67575 6.75137 0.1
8.82688 7.51565 0.1
8.89755 7.56932 0.1
9.00894 6.90235 0.1
9.31754 6.58936 0.1
8.99619 7.31062 0.1
8.67317 7.1143 0.1
8.70809 6.25 0.1
10.2334 7.80568 0.1
9.45268 7.13775 0.1
[...]
    <PointData>
      <DataArray type="Float64" NumberOfComponents="3" Name="Velocity" format="ascii">
0 0 0
0 0 0
0 0 0
0 0 0
1.04749 0.00174792 0
0.934274 -1.99638e-05 0
1.04726 -0.00159046 0
0.935592 -8.47832e-06 0
1.03368 -0.00122342 0
0.971829 -2.2636e-05 0
1.03358 0.00109784 0
0.97484 -1.00087e-05 0
0 0 0
0 0 0
0 0 0
0 0 0
0 0 0
0 0 0
0 0 0
0 0 0
0 0 0
0 0 0
0 0 0
0 0 0
0 0 0
0 0 0
0 0 0
0 0 0
0 0 0
0 0 0
0 0 0
0 0 0
0 0 0
0 0 0
0 0 0
0 0 0
0 0 0
0 0 0
0 0 0
0 0 0
0 0 0
0 0 0
0 0 0
0 0 0
0 0 0
0 0 0
0 0 0
0 0 0
0 0 0
0 0 0
0 0 0
0 0 0
0 0 0
0 0 0
0 0 0
0 0 0
0 0 0
0 0 0
0 0 0
0 0 0
0 0 0
0 0 0
0 0 0
0 0 0
0 0 0
0 0 0
0 0 0
0 0 0
0 0 0
0 0 0
0 0 0
0 0 0
0 0 0
0 0 0
0 0 0
0 0 0
0 0 0
0 0 0
0 0 0
0 0 0
0 0 0
0 0 0
0 0 0
0 0 0
0 0 0
0 0 0
0 0 0
0 0 0
0 0 0
0 0 0
0 0 0
0 0 0
0 0 0
0 0 0
0 0 0
0 0 0
0 0 0
0 0 0
0 0 0
0 0 0
0 0 0
0 0 0
0 0 0
0 0 0
0 0 0
0 0 0
0 0 0
0 0 0
0 0 0
0 0 0
0 0 0
0 0 0
0 0 0
0 0 0
0 0 0
0 0 0
0 0 0
0 0 0
0 0 0
0 0 0
0 0 0
0 0 0
0 0 0
0 0 0
0 0 0
0 0 0
0 0 0
0 0 0
0 0 0
0 0 0
0 0 0
0 0 0
0 0 0
0 0 0
0 0 0
0 0 0
0 0 0
0 0 0
0 0 0
0 0 0
0 0 0
0 0 0
0 0 0
0 0 0
0 0 0
0 0 0
0 0 0
0 0 0
0 0 0
0 0 0
0 0 0
0 0 0
0 0 0
0 0 0
0 0 0
0 0 0
0 0 0
0 0 0
0 0 0
0 0 0
0 0 0
0 0 0
0 0 0
0 0 0
0 0 0
0 0 0
0 0 0
0 0 0
1.05007 0.0142281 0
1.05405 0.0260602 0
1.05342 0.0380373 0
1.04654 0.0516228 0
1.0352 0.0612464 0
1.02204 0.0677775 0
1.0069 0.0700656 0
0.992925 0.0670685 0
0.977731 0.0633868 0
0.963429 0.0561526 0
0.950834 0.045426 0
0.940904 0.0318226 0
0.935803 0.0159226 0
1.04973 0.00552256 0
1.05274 0.0179873 0
1.05424 0.0319129 0
1.05129 0.0449623 0
1.04164 0.0560614 0
1.02873 0.0648936 0
1.0154 0.0699057 0
0.998403 0.0707859 0
0.983621 0.0670992 0
0.968994 0.0609358 0
0.955351 0.0515256 0
0.94488 0.0389179 0
0.937432 0.0241956 0
0.933713 0.00838526 0
0.935699 -0.0160217 0
0.940769 -0.0317904 0
0.95047 -0.0453108 0
0.963702 -0.0558174 0
0.978531 -0.0633824 0
0.992297 -0.0673846 0
1.00763 -0.0711822 0
1.02236 -0.0678041 0
1.03655 -0.0617067 0
1.04872 -0.050997 0
1.05385 -0.0389636 0
1.05446 -0.0270921 0
1.04769 -0.0134587 0
0.933744 -0.00840966 0
0.937523 -0.0243108 0
0.94502 -0.0389987 0
0.955432 -0.0514649 0
0.968477 -0.0608144 0
0.983294 -0.0670396 0
0.999956 -0.07095 0
1.01601 -0.0704831 0
1.0301 -0.0662488 0
1.04384 -0.0576984 0
1.05352 -0.0455127 0
1.05502 -0.0318104 0
1.05223 -0.0181349 0
1.04866 -0.0054627 0
1.04739 0.0122782 0
1.04648 0.0252497 0
1.04237 0.0366482 0
1.03527 0.0469909 0
1.02422 0.0556955 0
1.0104 0.0608012 0
0.995853 0.0627927 0
0.982806 0.0611445 0
0.971494 0.0560764 0
0.961149 0.0482015 0
0.951685 0.037917 0
0.943017 0.0260811 0
0.937592 0.0133616 0
1.04695 0.00695095 0
1.04715 0.0191184 0
1.04465 0.031686 0
1.03891 0.0425164 0
1.03029 0.0514856 0
1.01774 0.0584991 0
1.00347 0.0622186 0
0.989741 0.0622107 0
0.977353 0.0589138 0
0.965972 0.0525429 0
0.956029 0.0433659 0
0.947291 0.0322465 0
0.94004 0.0198255 0
0.936243 0.00677409 0
0.937584 -0.0133791 0
0.943056 -0.0260926 0
0.951684 -0.0379256 0
0.961085 -0.0482656 0
0.971221 -0.0560779 0
0.982949 -0.0612965 0
0.995657 -0.0628227 0
1.01064 -0.0608822 0
1.02484 -0.0557372 0
1.03484 -0.0468017 0
1.04245 -0.0367302 0
1.04662 -0.0251547 0
1.04712 -0.0122212 0
0.936238 -0.00680004 0
0.940067 -0.0198585 0
0.94731 -0.0322449 0
0.956102 -0.0433122 0
0.966095 -0.0525187 0
0.977439 -0.0589189 0
0.989811 -0.0622055 0
1.00353 -0.062161 0
1.01788 -0.0587266 0
1.03042 -0.0516796 0
1.03903 -0.0423563 0
1.0447 -0.0317092 0
1.04711 -0.018983 0
1.04722 -0.00683258 0
1.03369 0.00515359 0
1.03143 0.0120269 0
1.02805 0.0182988 0
1.0231 0.0233765 0
1.01721 0.0271012 0
1.01024 0.0298205 0
1.00363 0.0306954 0
0.99762 0.0300774 0
0.990371 0.0278357 0
0.983703 0.0240824 0
0.978875 0.0188243 0
0.975219 0.0126018 0
0.972667 0.00634401 0
1.03376 0.00208214 0
1.03286 0.00843857 0
1.03009 0.0153254 0
1.02614 0.0209927 0
1.02065 0.0252609 0
1.01423 0.0284529 0
1.00724 0.0304098 0
1.00085 0.0304484 0
0.994133 0.0289597 0
0.986894 0.0261957 0
0.981186 0.0216061 0
0.976974 0.0157807 0
0.973919 0.00950988 0
0.972102 0.00322807 0
0.972668 -0.00637052 0
0.975217 -0.0126212 0
0.978894 -0.018814 0
0.983818 -0.0241739 0
0.990452 -0.0277499 0
0.997685 -0.0299319 0
1.00386 -0.0306465 0
1.01062 -0.0297464 0
1.01761 -0.0270144 0
1.02336 -0.0233955 0
1.02794 -0.0182272 0
1.03127 -0.0121079 0
1.03315 -0.00517551 0
0.972098 -0.00324629 0
0.973909 -0.00951611 0
0.976948 -0.0157812 0
0.981209 -0.0216049 0
0.986854 -0.0261811 0
0.994096 -0.0290089 0
1.00075 -0.030417 0
1.00709 -0.0303976 0
1.01419 -0.0285532 0
1.02068 -0.0253737 0
1.02591 -0.0209987 0
1.03026 -0.0153078 0
1.03263 -0.0085639 0
1.03372 -0.00179666 0
1.03226 0.00705968 0
1.02949 0.0132605 0
1.02584 0.0188311 0
1.02119 0.0235512 0
1.01533 0.0268869 0
1.00865 0.0288104 0
1.00261 0.0289613 0
0.996813 0.0278446 0
0.99042 0.0264677 0
0.984476 0.0245575 0
0.97963 0.0199682 0
0.976476 0.0131937 0
0.97523 0.00631789 0
1.03319 0.00415918 0
1.03102 0.0100311 0
1.02795 0.0161272 0
1.02382 0.0213594 0
1.01852 0.0253474 0
1.01222 0.0279937 0
1.00572 0.0291345 0
0.999963 0.0284835 0
0.993744 0.0269842 0
0.987557 0.025669 0
0.982051 0.0225589 0
0.977838 0.016689 0
0.975682 0.00977785 0
0.974951 0.00315738 0
0.975201 -0.00632345 0
0.976413 -0.0132492 0
0.979597 -0.0199445 0
0.984533 -0.0246312 0
0.990408 -0.0265764 0
0.996774 -0.0278613 0
1.00261 -0.0288422 0
1.00877 -0.0287896 0
1.01539 -0.0268138 0
1.02117 -0.0234895 0
1.02601 -0.0189393 0
1.02954 -0.0132658 0
1.03241 -0.00721442 0
0.974946 -0.00317496 0
0.975719 -0.00984691 0
0.977898 -0.016715 0
0.98216 -0.0224884 0
0.987607 -0.0256856 0
0.993803 -0.0270257 0
0.999895 -0.0284139 0
1.00571 -0.0291849 0
1.01217 -0.0280185 0
1.01852 -0.0253296 0
1.02382 -0.0212598 0
1.02794 -0.0161575 0
1.03122 -0.0100385 0
1.03331 -0.00403695 0
1.08183 -0.00272515 0
1.09801 -0.0047995 0
1.10616 -0.00487786 0
1.11961 -0.00605015 0
1.13429 -0.00713498 0
1.15317 -0.00863246 0
1.17579 -0.010651 0
1.20431 -0.0133709 0
1.24073 -0.0172239 0
1.28835 -0.0226814 0
1.35126 -0.0312026 0
1.43698 -0.0439447 0
1.56153 -0.065698 0
1.70271 -0.0860315 0
1.06578 -0.000252727 0
1.09326 -0.004125 0
1.10128 -0.00477297 0
1.11256 -0.00545768 0
1.12679 -0.0065938 0
1.14315 -0.00782443 0
1.1638 -0.0095745 0
1.18905 -0.0118932 0
1.22126 -0.0151447 0
1.26261 -0.0196768 0
1.31676 -0.0263665 0
1.39099 -0.0366365 0
1.49351 -0.0522845 0
1.63694 -0.0833347 0
1.66216 -0.134275 0
0.0298531 -0.00286119 0
0.313414 0.00209669 0
0.49783 0.000139677 0
0.614296 0.000346582 0
0.694148 7.67017e-05 0
0.750523 2.31629e-05 0
0.794026 0.000107121 0
0.826741 8.11668e-05 0
0.852755 -6.72592e-06 0
0.873212 -1.24363e-05 0
0.890208 -2.45428e-05 0
0.904097 -2.58334e-05 0
0.915563 -2.43421e-05 0
0.92549 -2.29459e-05 0
-0.0638934 -0.00630504 0
0.173816 0.00674207 0
0.418099 0.00089013 0
0.561272 0.000685733 0
0.657273 0.000215181 0
0.724433 0.000112431 0
0.77363 7.13333e-05 0
0.811376 4.00465e-06 0
0.840473 -3.14482e-05 0
0.863542 -1.05841e-05 0
0.882114 -2.61157e-05 0
0.897446 -1.80042e-05 0
0.910076 -2.42858e-05 0
0.920735 -2.23581e-05 0
0.929982 -1.07128e-05 0
1.72566 0.0932067 0
1.56834 0.0669663 0
1.43601 0.0435823 0
1.35079 0.0306217 0
1.28837 0.0228897 0
1.24053 0.0172865 0
1.2043 0.0133614 0
1.17587 0.010759 0
1.15319 0.00877268 0
1.13422 0.00720104 0
1.11956 0.00613411 0
1.10606 0.00477647 0
1.09801 0.00462223 0
1.08177 0.00245133 0
1.65658 0.140056 0
1.62873 0.0733547 0
1.49336 0.0509377 0
1.39114 0.0364714 0
1.31612 0.0264105 0
1.26239 0.019762 0
1.22111 0.0152232 0
1.18879 0.0120106 0
1.16363 0.00967599 0
1.14309 0.00794194 0
1.12672 0.00664833 0
1.11259 0.00541646 0
1.10095 0.00458643 0
1.09318 0.00405198 0
1.06558 0.000213125 0
0.929228 -1.78861e-05 0
0.92195 -1.85098e-05 0
0.913091 -1.35584e-05 0
0.901742 -2.02294e-05 0
0.887382 -2.56004e-05 0
0.869895 -3.05996e-05 0
0.847814 -3.39517e-05 0
0.820629 -3.63742e-05 0
0.785058 -4.10982e-05 0
0.739551 -4.72147e-05 0
0.676812 -5.41557e-05 0
0.591507 -5.91661e-05 0
0.469959 -2.72027e-05 0
0.270465 9.35562e-05 0
0.932466 -1.44637e-05 0
0.925735 -2.06971e-05 0
0.917783 -1.36538e-05 0
0.907746 -1.46148e-05 0
0.894949 -2.1773e-05 0
0.879128 -2.84288e-05 0
0.859518 -3.2849e-05 0
0.835069 -3.47472e-05 0
0.804032 -3.83933e-05 0
0.763907 -4.37509e-05 0
0.71059 -5.06781e-05 0
0.637604 -6.09851e-05 0
0.536521 -7.99799e-05 0
0.382077 -0.000106332 0
0.143224 -0.000339518 0
1.04358 -0.00154152 0
1.05841 -0.00192916 0
1.03763 -0.00145741 0
1.05091 -0.00177671 0
1.05313 -0.00192584 0
0.951313 -1.57961e-05 0
0.964379 -2.17985e-05 0
0.943096 -1.70685e-05 0
0.958769 -1.06817e-05 0
0.968496 -4.37533e-06 0
1.05821 0.00234322 0
1.04333 0.00149454 0
1.05332 0.00186946 0
1.05108 0.00172632 0
1.03765 0.00126752 0
0.96609 -1.33399e-05 0
0.953013 -9.37773e-06 0
0.970932 -1.52686e-05 0
0.960005 -2.37452e-05 0
0.944909 -1.05387e-05 0
0.931344 0.229471 0
1.1927 0.246797 0
1.01964 0.452051 0
1.11854 0.0882931 0
0.680166 0.441723 0
0.886589 0.0874541 0
1.43446 0.273467 0
1.04756 0.145108 0
1.23229 0.622138 0
0.934859 0.764511 0
0.798502 0.161835 0
1.23361 0.103479 0
0.968493 0.115442 0
0.412448 0.501076 0
1.04648 0.260075 0
1.58287 0.459695 0
1.11858 0.0349419 0
0.893265 0.0420131 0
0.618531 0.730675 0
0.829546 0.0675626 0
1.82147 0.272196 0
0.66923 0.185893 0
0.798484 0.283161 0
1.18381 0.0376088 0
1.33961 0.661207 0
1.03024 0.778383 0
1.14723 0.142828 0
1.06795 0.0924697 0
1.17908 0.381597 0
1.343 0.0989421 0
1.09866 0.0174487 0
0.912001 0.0224274 0
1.00004 0.182185 0
0.881464 0.159009 0
0.941821 0.0801533 0
1.00966 0.106618 0
0.65119 0.659821 0
1.35754 0.426366 0
0.933451 0.320724 0
1.08781 0.056436 0
0.811356 0.478173 0
0.747775 0.0883387 0
1.10417 0.195494 0
0.946639 0.163562 0
0.0322359 0.231583 0
0.209867 0.391329 0
0.927662 0.116091 0
1.54539 0.129841 0
1.29623 0.214754 0
1.08954 0.122147 0
0.488658 0.219989 0
1.41396 0.465845 0
1.16639 0.0938348 0
0.92883 0.0499282 0
1.14567 0.0237144 0
0.867753 0.0393278 0
1.06267 0.326104 0
0.995573 0.568939 0
1.25462 0.0513004 0
0.864806 0.119647 0
1.21195 0.161923 0
0.847302 0.523057 0
1.12812 0.0147794 0
0.852395 0.196573 0
1.04869 0.192744 0
1.89435 0.0816564 0
1.14232 0.0575443 0
1.03848 0.103606 0
1.25099 0.302248 0
0.774931 0.614381 0
0.998131 0.130681 0
0.162107 0.171093 0
0.277942 0.251668 0
0.883521 0.0198089 0
0.705421 0.274224 0
0.758001 0.380861 0
0.559002 0.65372 0
1.17688 0.506317 0
1.1092 0.280503 0
0.988431 0.0894045 0
0.677625 0.0813947 0
0.782465 0.0476869 0
0.978789 0.2648 0
0.749845 0.211298 0
0.967827 0.092393 0
1.40157 0.493608 0
0.0882627 0.10406 0
0.865986 0.0673832 0
1.10023 0.0370158 0
1.10027 0.449902 0
0.295076 0.316236 0
0.997858 0.256148 0
0.907654 0.0640431 0
1.22091 0.0198594 0
1.42524 0.0662697 0
1.07817 0.786025 0
1.54565 0.279386 0
-0.0532792 0.0130915 0
-0.0383966 0.00422903 0
0.563511 0.371014 0
1.09093 0.00638339 0
0.922129 0.0126365 0
1.31229 0.033665 0
1.09163 0.077088 0
1.0652 0.0639287 0
0.918366 0.416397 0
0.80294 0.0890949 0
1.08033 0.155365 0
1.03907 0.0809444 0
1.16301 0.189073 0
0.110579 0.0723766 0
0.824398 0.0327269 0
1.11663 0.0584767 0
-0.0609405 -0.0901542 0
1.27381 0.143601 0
0.878356 0.261154 0
1.41429 0.16609 0
1.16582 0.014988 0
1.00359 0.371563 0
0.898453 0.0128823 0
1.1113 0.00769566 0
0.782171 0.14209 0
0.566223 0.114576 0
0.72872 0.144852 0
0.876167 0.572942 0
1.39992 -0.0263685 0
0.920322 0.0913646 0
1.06968 0.116056 0
0.974578 0.211526 0
1.01459 0.867395 0
-0.00757362 -0.0158671 0
1.1022 0.417968 0
0.831631 0.860064 0
1.35518 0.801249 0
1.20822 0.0623447 0
1.18313 0.124205 0
1.44254 0.376823 0
1.02692 0.125989 0
-0.070027 -0.0238537 0
0.910771 0.0100419 0
1.10014 0.00474416 0
1.01863 0.0860693 0
1.6223 0.0961278 0
1.59012 0.609825 0
0.917082 0.180444 0
1.11842 0.115322 0
0.9477 0.102488 0
0.251708 0.0892946 0
0.912341 0.0397601 0
-0.0627827 -0.150563 0
1.07393 0.00443072 0
0.928836 0.00763796 0
0.844824 0.151034 0
1.28418 0.0872609 0
0.864808 0.0168094 0
1.26766 0.499974 0
1.11169 0.0224173 0
1.00978 0.221644 0
1.1448 0.00728295 0
0.944483 0.0616237 0
0.859791 0.333119 0
0.978297 0.151815 0
1.0597 0.121983 0
-0.0811358 -0.112356 0
1.1663 0.302156 0
1.01793 0.152986 0
0.900008 0.119226 0
1.01223 0.305847 0
1.7453 0.401515 0
0.926107 0.0295455 0
1.34348 0.315511 0
1.00365 0.0867144 0
0.730619 0.0439678 0
0.899705 0.0276567 0
0.920212 0.144502 0
0.947888 0.13211 0
1.07809 0.0414434 0
0.986666 0.109073 0
0.387015 0.0995664 0
1.08609 0.0232004 0
0.602802 0.250602 0
0.846508 0.0232909 0
0.962457 0.0736417 0
0.521215 0.680413 0
1.36167 0.225442 0
0.928132 0.0694577 0
1.50014 0.0285635 0
1.19006 0.00964412 0
0.0628245 0.196538 0
1.276 0.406523 0
1.1153 0.155166 0
0.813401 0.224918 0
1.08714 0.231976 0
1.05239 0.0719758 0
0.929352 0.26917 0
0.885848 0.0605776 0
1.17046 0.0667573 0
0.938534 0.502187 0
1.15694 0.0403316 0
1.23162 0.209497 0
1.14356 0.0808308 0
1.42967 0.655223 0
0.889693 0.20824 0
0.432473 0.113947 0
1.19336 0.0905952 0
1.0688 0.502524 0
1.13445 0.0397427 0
0.778314 0.121128 0
1.09864 0.0978693 0
1.1353 0.239845 0
0.442422 0.353125 0
0.739915 0.470366 0
0.848598 0.0904248 0
1.49546 0.211827 0
1.36931 0.0231647 0
1.11691 0.642167 0
1.3298 0.165838 0
0.956545 0.66498 0
1.26276 0.012698 0
0.953908 0.0354779 0
0.846516 0.0463134 0
1.11718 0.345985 0
0.146006 0.0157526 0
1.14479 0.109672 0
0.978979 0.0802457 0
0.726297 0.743042 0
1.1773 0.15455 0
0.954926 0.886069 0
-0.0365693 -0.074441 0
0.824211 0.122108 0
0.947984 0.192702 0
0.656934 0.341291 0
1.21718 0.815578 0
1.06957 0.0547508 0
0.219351 0.465529 0
0.969205 0.180265 0
0.35805 0.433489 0
0.976316 0.10118 0
0.967453 0.10278 0
0.97853 0.112624 0
0.106519 0.340899 0
0.257056 0.424259 0
0.158093 0.324471 0
0.978532 0.0922959 0
0.98868 0.0997539 0
0.765429 0.0260302 0
0.786248 0.0229816 0
1.10858 0.0358103 0
1.10844 0.0461941 0
1.11841 0.0465111 0
1.61076 0.00506782 0
1.66864 0.0184929 0
0.869931 0.450902 0
0.832714 0.40803 0
0.779322 0.430326 0
0.421557 0.628334 0
0.39878 0.598876 0
0.218569 0.445057 0
0.890684 0.652999 0
0.819819 0.594912 0
0.846262 0.700702 0
1.53454 -0.0132703 0
1.578 0.0537862 0
0.868245 0.176466 0
0.870955 0.203602 0
0.883829 0.18246 0
0.887751 0.0313904 0
0.875679 0.0286858 0
0.881233 0.0411144 0
1.11867 0.0727253 0
1.10479 0.0695037 0
1.10425 0.0829258 0
0.739882 0.0204017 0
0.758397 0.0460937 0
0.804932 0.0391503 0
0.808601 0.0181024 0
1.12452 0.00372068 0
1.13189 0.00421165 0
0.877849 0.0104447 0
0.886205 0.00947804 0
1.07754 0.105788 0
1.09513 0.109948 0
1.08163 0.0964557 0
0.866027 0.0529475 0
0.876308 0.0637886 0
0.876028 0.0506791 0
0.889398 0.0506881 0
1.13643 0.0188066 0
1.13199 0.0266404 0
1.14035 0.0321572 0
1.6215 0.215512 0
1.59578 0.116977 0
1.85871 0.177552 0
1.09105 0.173616 0
1.0669 0.174276 0
1.07549 0.196747 0
0.935338 0.0411432 0
0.94091 0.0494194 0
1.10152 0.13723 0
1.1188 0.134102 0
1.10371 0.11978 0
1.09097 0.0657308 0
1.10138 0.0581235 0
0.630922 0.418311 0
0.555592 0.496573 0
0.645726 0.546518 0
1.06452 0.106926 0
1.07386 0.123284 0
0.334545 0.526219 0
0.344008 0.414659 0
0.8911 0.137271 0
0.883476 0.120386 0
0.871296 0.139614 0
0.824278 0.016031 0
1.21325 0.00228284 0
1.23172 0.0025882 0
1.58935 0.114861 0
1.52802 0.0732312 0
1.05496 0.291204 0
1.08923 0.304042 0
1.07567 0.272383 0
0.47637 0.583029 0
0.501847 0.434271 0
0.841893 0.274897 0
0.843944 0.24589 0
0.80579 0.251611 0
1.15994 0.00238408 0
1.17151 0.00277415 0
0.827681 0.767097 0
0.896634 0.831695 0
1.14923 -0.000345903 0
1.15491 0.0108166 0
-0.10257 -0.105396 0
-0.0956022 -0.129419 0
1.0955 0.0462798 0
0.904198 0.193735 0
0.898139 0.171227 0
0.643569 0.0454066 0
0.681645 0.0387376 0
1.09359 0.610294 0
0.567171 0.290599 0
0.884801 0.424453 0
1.24048 0.0170323 0
1.25184 -0.00307758 0
0.685803 0.230622 0
0.728598 0.240981 0
0.711957 0.201286 0
1.31737 0.258746 0
1.35537 0.269269 0
1.32584 0.220255 0
1.29374 0.311641 0
1.27871 0.258804 0
0.754104 0.281922 0
0.727733 0.327577 0
0.779898 0.329186 0
1.25532 0.550822 0
1.32868 0.650081 0
1.32589 0.563165 0
1.02921 0.530384 0
1.0037 0.507586 0
0.958387 0.533852 0
-0.10203 -0.149218 0
-0.0962121 -0.173024 0
1.32778 0.502934 0
1.4293 0.56817 0
0.834142 0.210248 0
0.862071 0.228381 0
0.884671 0.374491 0
0.814904 0.360231 0
1.73291 0.174572 0
1.59353 0.191998 0
1.68277 0.279417 0
1.36736 0.732885 0
1.20207 0.733704 0
1.08625 0.138183 0
1.09713 0.156452 0
0.773846 0.791009 0
0.586388 0.639599 0
0.405743 0.436901 0
0.619552 0.156606 0
0.57763 0.184713 0
0.637798 0.213272 0
0.952278 0.651038 0
1.21039 0.815807 0
0.964794 0.347548 0
1.00568 0.334594 0
0.972718 0.31614 0
1.2461 0.0785196 0
1.22987 0.0579418 0
1.22096 0.0809911 0
0.718296 0.404727 0
0.707492 0.364559 0
0.664406 0.392829 0
1.21956 0.342947 0
1.20626 0.305336 0
1.17093 0.337899 0
0.900368 0.528754 0
0.937516 0.573975 0
0.669051 0.130589 0
0.627313 0.0952909 0
0.771066 0.248359 0
-0.0927127 -0.196931 0
-0.0831248 -0.217839 0
1.12593 0.0372044 0
1.12387 0.0253072 0
1.0485 0.16677 0
1.06281 0.151276 0
0.993834 0.285013 0
0.957356 0.291407 0
1.02284 0.189589 0
1.03096 0.171778 0
1.00971 0.167003 0
0.972062 0.132463 0
0.989725 0.141195 0
0.982485 0.124353 0
0.876106 0.10217 0
0.891867 0.103536 0
1.12878 0.0586489 0
1.1294 0.0683684 0
1.14365 0.0686639 0
1.25738 0.0969377 0
1.26882 0.0679715 0
1.56118 0.198147 0
1.49109 0.411956 0
1.42585 0.429728 0
1.49232 0.492251 0
0.816934 0.077243 0
0.827233 0.0905511 0
0.838582 0.0796018 0
0.771944 0.688422 0
0.714405 0.527814 0
0.705415 0.577389 0
1.2202 0.27239 0
1.24586 0.251414 0
1.21375 0.228946 0
0.85524 0.134616 0
0.863858 0.156387 0
1.26265 0.213357 0
0.705574 0.0597467 0
0.711415 0.0236591 0
1.22583 0.133172 0
1.24176 0.155397 0
1.25249 0.121373 0
1.75357 0.0782992 0
1.86304 -0.034517 0
0.812259 0.106379 0
0.836791 0.104943 0
0.93619 0.0563728 0
0.947961 0.0541233 0
1.03303 0.150258 0
0.803553 0.192526 0
0.824039 0.181909 0
1.18202 0.274466 0
0.549357 0.238779 0
0.526052 0.159441 0
0.93386 0.0317894 0
0.925944 0.0398135 0
0.777198 0.0894844 0
0.791046 0.0694767 0
0.765224 0.065825 0
1.04406 0.477756 0
0.989629 0.48095 0
1.17813 0.545984 0
1.1314 0.552975 0
1.17649 0.634369 0
0.737869 0.0667798 0
1.06513 0.21194 0
1.04816 0.222751 0
1.0679 0.247271 0
1.11517 0.0283631 0
1.10593 0.0295547 0
0.682585 0.306727 0
0.917146 0.295149 0
0.776463 0.266197 0
0.254391 0.0638376 0
0.726314 0.804652 0
0.78679 0.808237 0
0.713047 0.783443 0
0.958589 0.123592 0
0.9615 0.143121 0
0.919165 0.0264768 0
0.923309 0.021347 0
0.917031 0.0172772 0
-0.0802663 -0.210787 0
-0.0641569 -0.197598 0
1.68903 0.449098 0
1.64878 0.342408 0
1.5702 0.360467 0
1.05348 0.0877868 0
1.04094 0.0924098 0
1.05317 0.0998204 0
1.06445 0.438386 0
1.04846 0.397471 0
1.0121 0.40909 0
0.505146 0.598813 0
0.351302 0.460777 0
0.21223 0.255474 0
1.13241 0.127961 0
1.1313 0.149998 0
0.637992 0.709263 0
0.270537 0.308379 0
0.899819 0.0536743 0
0.909323 0.0513186 0
0.9034 0.0409948 0
0.883553 0.232296 0
0.973723 0.0857714 0
0.971101 0.076936 0
0.964891 0.0824535 0
0.764914 0.155848 0
0.73718 0.178097 0
0.775967 0.184624 0
0.667303 0.565878 0
0.190364 0.138553 0
0.643786 0.488832 0
1.19332 0.200143 0
1.17618 0.214854 0
1.03115 0.208132 0
1.02608 0.240812 0
1.02477 0.106605 0
1.02927 0.0959884 0
1.01813 0.0971277 0
1.05413 0.13338 0
1.04316 0.12572 0
1.03619 0.135584 0
0.700402 0.162133 0
0.70069 0.115733 0
1.048 0.607191 0
1.08986 0.53886 0
0.868793 0.0895479 0
0.855352 0.105558 0
1.47764 0.091674 0
1.4248 0.114907 0
1.47267 0.151316 0
1.20176 0.0302292 0
1.20464 0.0143332 0
1.18777 0.0240386 0
0.679195 0.292602 0
1.23376 0.541732 0
1.25979 0.0326186 0
1.23715 0.0341165 0
1.51941 0.259365 0
0.912647 0.138524 0
0.868746 0.00792245 0
0.874593 0.0184605 0
1.04801 0.112571 0
0.780151 0.528441 0
0.835953 0.522006 0
1.09566 0.0865211 0
1.08105 0.0867447 0
1.09638 0.213328 0
0.750467 0.532404 0
0.708261 0.459188 0
1.13604 0.0114206 0
1.13959 -0.000313056 0
0.660704 0.266669 0
1.13077 0.0853761 0
0.847094 0.173303 0
0.823519 0.15725 0
1.06862 0.137229 0
0.645678 0.704628 0
0.937996 0.108839 0
0.93342 0.0978843 0
0.923262 0.103169 0
0.807199 0.0595191 0
1.21615 0.0416861 0