<?xml version="1.0"?>
<VTKFile type="UnstructuredGrid">
  <UnstructuredGrid>
  <Piece NumberOfPoints="5412"  NumberOfCells="2638">
    <Points>
      <DataArray type="Float64" NumberOfComponents="3" format="ascii">
8.5 7.5 0.1
9 8 0.1
8.5 8.5 0.1
8 8 0.1
8.5 6 0.1
10.5 8 0.1
8.5 10 0.1
6.5 8 0.1
8.5 5 0.1
11.5 8 0.1
8.5 11 0.1
5.5 8 0.1
8.53923 7.50154 0.1
8.57822 7.50616 0.1
8.61672 7.51382 0.1
8.65451 7.52447 0.1
8.69134 7.53806 0.1
8.727 7.5545 0.1
8.76125 7.57368 0.1
8.79389 7.59549 0.1
8.82472 7.6198 0.1
8.85355 7.64645 0.1
8.8802 7.67528 0.1
8.90451 7.70611 0.1
8.92632 7.73875 0.1
8.9455 7.773 0.1
8.96194 7.80866 0.1
8.97553 7.84549 0.1
8.98618 7.88328 0.1
8.99384 7.92178 0.1
8.99846 7.96077 0.1
8.51963 7.50039 0.1
8.55877 7.50347 0.1
8.59755 7.50961 0.1
8.63572 7.51877 0.1
8.67306 7.5309 0.1
8.70933 7.54593 0.1
8.74431 7.56375 0.1
8.77779 7.58427 0.1
8.80955 7.60734 0.1
8.8394 7.63284 0.1
8.86716 7.6606 0.1
8.89266 7.69045 0.1
8.91573 7.72221 0.1
8.93625 7.75569 0.1
8.95407 7.79067 0.1
8.9691 7.82694 0.1
8.98123 7.86428 0.1
8.99039 7.90245 0.1
8.99653 7.94123 0.1
8.99961 7.98037 0.1
8.99846 8.03923 0.1
8.99384 8.07822 0.1
8.98618 8.11672 0.1
8.97553 8.15451 0.1
8.96194 8.19134 0.1
8.9455 8.227 0.1
8.92632 8.26125 0.1
8.90451 8.29389 0.1
8.8802 8.32472 0.1
8.85355 8.35355 0.1
8.82472 8.3802 0.1
8.79389 8.40451 0.1
8.76125 8.42632 0.1
8.727 8.4455 0.1
8.69134 8.46194 0.1
8.65451 8.47553 0.1
8.61672 8.48618 0.1
8.57822 8.49384 0.1
8.53923 8.49846 0.1
8.99961 8.01963 0.1
8.99653 8.05877 0.1
8.99039 8.09755 0.1
8.98123 8.13572 0.1
8.9691 8.17306 0.1
8.95407 8.20933 0.1
8.93625 8.24431 0.1
8.91573 8.27779 0.1
8.89266 8.30955 0.1
8.86716 8.3394 0.1
8.8394 8.36716 0.1
8.80955 8.39266 0.1
8.77779 8.41573 0.1
8.74431 8.43625 0.1
8.70933 8.45407 0.1
8.67306 8.4691 0.1
8.63572 8.48123 0.1
8.59755 8.49039 0.1
8.55877 8.49653 0.1
8.51963 8.49961 0.1
8.46077 8.49846 0.1
8.42178 8.49384 0.1
8.38328 8.48618 0.1
8.34549 8.47553 0.1
8.30866 8.46194 0.1
8.273 8.4455 0.1
8.23875 8.42632 0.1
8.20611 8.40451 0.1
8.17528 8.3802 0.1
8.14645 8.35355 0.1
8.1198 8.32472 0.1
8.09549 8.29389 0.1
8.07368 8.26125 0.1
8.0545 8.227 0.1
8.03806 8.19134 0.1
8.02447 8.15451 0.1
8.01382 8.11672 0.1
8.00616 8.07822 0.1
8.00154 8.03923 0.1
8.48037 8.49961 0.1
8.44123 8.49653 0.1
8.40245 8.49039 0.1
8.36428 8.48123 0.1
8.32694 8.4691 0.1
8.29067 8.45407 0.1
8.25569 8.43625 0.1
8.22221 8.41573 0.1
8.19045 8.39266 0.1
8.1606 8.36716 0.1
8.13284 8.3394 0.1
8.10734 8.30955 0.1
8.08427 8.27779 0.1
8.06375 8.24431 0.1
8.04593 8.20933 0.1
8.0309 8.17306 0.1
8.01877 8.13572 0.1
8.00961 8.09755 0.1
8.00347 8.05877 0.1
8.00039 8.01963 0.1
8.00154 7.96077 0.1
8.00616 7.92178 0.1
8.01382 7.88328 0.1
8.02447 7.84549 0.1
8.03806 7.80866 0.1
8.0545 7.773 0.1
8.07368 7.73875 0.1
8.09549 7.70611 0.1
8.1198 7.67528 0.1
8.14645 7.64645 0.1
8.17528 7.6198 0.1
8.20611 7.59549 0.1
8.23875 7.57368 0.1
8.273 7.5545 0.1
8.30866 7.53806 0.1
8.34549 7.52447 0.1
8.38328 7.51382 0.1
8.42178 7.50616 0.1
8.46077 7.50154 0.1
8.00039 7.98037 0.1
8.00347 7.94123 0.1
8.00961 7.90245 0.1
8.01877 7.86428 0.1
8.0309 7.82694 0.1
8.04593 7.79067 0.1
8.06375 7.75569 0.1
8.08427 7.72221 0.1
8.10734 7.69045 0.1
8.13284 7.6606 0.1
8.1606 7.63284 0.1
8.19045 7.60734 0.1
8.22221 7.58427 0.1
8.25569 7.56375 0.1
8.29067 7.54593 0.1
8.32694 7.5309 0.1
8.36428 7.51877 0.1
8.40245 7.50961 0.1
8.44123 7.50347 0.1
8.48037 7.50039 0.1
8.72393 6.01258 0.1
8.94504 6.05014 0.1
9.16056 6.11223 0.1
9.36777 6.19806 0.1
9.56406 6.30655 0.1
9.74698 6.43634 0.1
9.91421 6.58579 0.1
10.0637 6.75302 0.1
10.1934 6.93594 0.1
10.3019 7.13223 0.1
10.3878 7.33944 0.1
10.4499 7.55496 0.1
10.4874 7.77607 0.1
8.61214 6.00315 0.1
8.83501 6.02826 0.1
9.05367 6.07817 0.1
9.26537 6.15224 0.1
9.46744 6.24955 0.1
9.65734 6.36888 0.1
9.83269 6.50872 0.1
9.99128 6.66731 0.1
10.1311 6.84266 0.1
10.2504 7.03256 0.1
10.3478 7.23463 0.1
10.4218 7.44633 0.1
10.4717 7.66499 0.1
10.4969 7.88786 0.1
10.4874 8.22393 0.1
10.4499 8.44504 0.1
10.3878 8.66056 0.1
10.3019 8.86777 0.1
10.1934 9.06406 0.1
10.0637 9.24698 0.1
9.91421 9.41421 0.1
9.74698 9.56366 0.1
9.56406 9.69345 0.1
9.36777 9.80194 0.1
9.16056 9.88777 0.1
8.94504 9.94986 0.1
8.72393 9.98742 0.1
10.4969 8.11214 0.1
10.4717 8.33501 0.1
10.4218 8.55367 0.1
10.3478 8.76537 0.1
10.2504 8.96744 0.1
10.1311 9.15734 0.1
9.99128 9.33269 0.1
9.83269 9.49128 0.1
9.65734 9.63112 0.1
9.46744 9.75045 0.1
9.26537 9.84776 0.1
9.05367 9.92183 0.1
8.83501 9.97174 0.1
8.61214 9.99685 0.1
8.27607 9.98742 0.1
8.05496 9.94986 0.1
7.83944 9.88777 0.1
7.63223 9.80194 0.1
7.43594 9.69345 0.1
7.25302 9.56366 0.1
7.08579 9.41421 0.1
6.93634 9.24698 0.1
6.80655 9.06406 0.1
6.69806 8.86777 0.1
6.61223 8.66056 0.1
6.55014 8.44504 0.1
6.51258 8.22393 0.1
8.38786 9.99685 0.1
8.16499 9.97174 0.1
7.94633 9.92183 0.1
7.73463 9.84776 0.1
7.53256 9.75045 0.1
7.34266 9.63112 0.1
7.16731 9.49128 0.1
7.00872 9.33269 0.1
6.86888 9.15734 0.1
6.74955 8.96744 0.1
6.65224 8.76537 0.1
6.57817 8.55367 0.1
6.52826 8.33501 0.1
6.50315 8.11214 0.1
6.51258 7.77607 0.1
6.55014 7.55496 0.1
6.61223 7.33944 0.1
6.69806 7.13223 0.1
6.80655 6.93594 0.1
6.93634 6.75302 0.1
7.08579 6.58579 0.1
7.25302 6.43634 0.1
7.43594 6.30655 0.1
7.63223 6.19806 0.1
7.83944 6.11223 0.1
8.05496 6.05014 0.1
8.27607 6.01258 0.1
6.50315 7.88786 0.1
6.52826 7.66499 0.1
6.57817 7.44633 0.1
6.65224 7.23463 0.1
6.74955 7.03256 0.1
6.86888 6.84266 0.1
7.00872 6.66731 0.1
7.16731 6.50872 0.1
7.34266 6.36888 0.1
7.53256 6.24955 0.1
7.73463 6.15224 0.1
7.94633 6.07817 0.1
8.16499 6.02826 0.1
8.38786 6.00315 0.1
8.83589 5.01886 0.1
9.16756 5.07522 0.1
9.49084 5.16835 0.1
9.80165 5.29709 0.1
10.0961 5.45983 0.1
10.3705 5.65451 0.1
10.6213 5.87868 0.1
10.8455 6.12953 0.1
11.0402 6.4039 0.1
11.2029 6.69835 0.1
11.3316 7.00916 0.1
11.4248 7.33244 0.1
11.4811 7.66411 0.1
8.66821 5.00472 0.1
9.00252 5.04239 0.1
9.33051 5.11725 0.1
9.64805 5.22836 0.1
9.95116 5.37433 0.1
10.236 5.55332 0.1
10.499 5.76307 0.1
10.7369 6.00096 0.1
10.9467 6.26399 0.1
11.1257 6.54884 0.1
11.2716 6.85195 0.1
11.3828 7.16949 0.1
11.4576 7.49748 0.1
11.4953 7.83179 0.1
11.4811 8.33589 0.1
11.4248 8.66756 0.1
11.3316 8.99084 0.1
11.2029 9.30165 0.1
11.0402 9.5961 0.1
10.8455 9.87047 0.1
10.6213 10.1213 0.1
10.3705 10.3455 0.1
10.0961 10.5402 0.1
9.80165 10.7029 0.1
9.49084 10.8316 0.1
9.16756 10.9248 0.1
8.83589 10.9811 0.1
11.4953 8.16821 0.1
11.4576 8.50252 0.1
11.3828 8.83051 0.1
11.2716 9.14805 0.1
11.1257 9.45116 0.1
10.9467 9.73601 0.1
10.7369 9.99904 0.1
10.499 10.2369 0.1
10.236 10.4467 0.1
9.95116 10.6257 0.1
9.64805 10.7716 0.1
9.33051 10.8828 0.1
9.00252 10.9576 0.1
8.66821 10.9953 0.1
8.16411 10.9811 0.1
7.83244 10.9248 0.1
7.50916 10.8316 0.1
7.19835 10.7029 0.1
6.9039 10.5402 0.1
6.62953 10.3455 0.1
6.37868 10.1213 0.1
6.15451 9.87047 0.1
5.95983 9.5961 0.1
5.79709 9.30165 0.1
5.66835 8.99084 0.1
5.57522 8.66756 0.1
5.51886 8.33589 0.1
8.33179 10.9953 0.1
7.99748 10.9576 0.1
7.66949 10.8828 0.1
7.35195 10.7716 0.1
7.04884 10.6257 0.1
6.76399 10.4467 0.1
6.50096 10.2369 0.1
6.26307 9.99904 0.1
6.05332 9.73601 0.1
5.87433 9.45116 0.1
5.72836 9.14805 0.1
5.61725 8.83051 0.1
5.54239 8.50252 0.1
5.50472 8.16821 0.1
5.51886 7.66411 0.1
5.57522 7.33244 0.1
5.66835 7.00916 0.1
5.79709 6.69835 0.1
5.95983 6.4039 0.1
6.15451 6.12953 0.1
6.37868 5.87868 0.1
6.62953 5.65451 0.1
6.9039 5.45983 0.1
7.19835 5.29709 0.1
7.50916 5.16835 0.1
7.83244 5.07522 0.1
8.16411 5.01886 0.1
5.50472 7.83179 0.1
5.54239 7.49748 0.1
5.61725 7.16949 0.1
5.72836 6.85195 0.1
5.87433 6.54884 0.1
6.05332 6.26399 0.1
6.26307 6.00096 0.1
6.50096 5.76307 0.1
6.76399 5.55332 0.1
7.04884 5.37433 0.1
7.35195 5.22836 0.1
7.66949 5.11725 0.1
7.99748 5.04239 0.1
8.33179 5.00472 0.1
8.5 6.1 0.1
8.5 6.2 0.1
8.5 6.3 0.1
8.5 6.4 0.1
8.5 6.5 0.1
8.5 6.6 0.1
8.5 6.7 0.1
8.5 6.8 0.1
8.5 6.9 0.1
8.5 7 0.1
8.5 7.1 0.1
8.5 7.2 0.1
8.5 7.3 0.1
8.5 7.4 0.1
8.5 6.05 0.1
8.5 6.15 0.1
8.5 6.25 0.1
8.5 6.35 0.1
8.5 6.45 0.1
8.5 6.55 0.1
8.5 6.65 0.1
8.5 6.75 0.1
8.5 6.85 0.1
8.5 6.95 0.1
8.5 7.05 0.1
8.5 7.15 0.1
8.5 7.25 0.1
8.5 7.35 0.1
8.5 7.45 0.1
9.1 8 0.1
9.2 8 0.1
9.3 8 0.1
9.4 8 0.1
9.5 8 0.1
9.6 8 0.1
9.7 8 0.1
9.8 8 0.1
9.9 8 0.1
10 8 0.1
10.1 8 0.1
10.2 8 0.1
10.3 8 0.1
10.4 8 0.1
9.05 8 0.1
9.15 8 0.1
9.25 8 0.1
9.35 8 0.1
9.45 8 0.1
9.55 8 0.1
9.65 8 0.1
9.75 8 0.1
9.85 8 0.1
9.95 8 0.1
10.05 8 0.1
10.15 8 0.1
10.25 8 0.1
10.35 8 0.1
10.45 8 0.1
8.5 8.6 0.1
8.5 8.7 0.1
8.5 8.8 0.1
8.5 8.9 0.1
8.5 9 0.1
8.5 9.1 0.1
8.5 9.2 0.1
8.5 9.3 0.1
8.5 9.4 0.1
8.5 9.5 0.1
8.5 9.6 0.1
8.5 9.7 0.1
8.5 9.8 0.1
8.5 9.9 0.1
8.5 8.55 0.1
8.5 8.65 0.1
8.5 8.75 0.1
8.5 8.85 0.1
8.5 8.95 0.1
8.5 9.05 0.1
8.5 9.15 0.1
8.5 9.25 0.1
8.5 9.35 0.1
8.5 9.45 0.1
8.5 9.55 0.1
8.5 9.65 0.1
8.5 9.75 0.1
8.5 9.85 0.1
8.5 9.95 0.1
6.6 8 0.1
6.7 8 0.1
6.8 8 0.1
6.9 8 0.1
7 8 0.1
7.1 8 0.1
7.2 8 0.1
7.3 8 0.1
7.4 8 0.1
7.5 8 0.1
7.6 8 0.1
7.7 8 0.1
7.8 8 0.1
7.9 8 0.1
6.55 8 0.1
6.65 8 0.1
6.75 8 0.1
6.85 8 0.1
6.95 8 0.1
7.05 8 0.1
7.15 8 0.1
7.25 8 0.1
7.35 8 0.1
7.45 8 0.1
7.55 8 0.1
7.65 8 0.1
7.75 8 0.1
7.85 8 0.1
7.95 8 0.1
8.5 5.33333 0.1
8.5 5.66667 0.1
8.5 5.16667 0.1
8.5 5.5 0.1
8.5 5.83333 0.1
10.8333 8 0.1
11.1667 8 0.1
10.6667 8 0.1
11 8 0.1
11.3333 8 0.1
8.5 10.3333 0.1
8.5 10.6667 0.1
8.5 10.1667 0.1
8.5 10.5 0.1
8.5 10.8333 0.1
5.83333 8 0.1
6.16667 8 0.1
5.66667 8 0.1
6 8 0.1
6.33333 8 0.1
9.42912 7.36778 0.1
8.98107 7.14335 0.1
9.12034 7.43554 0.1
9.01433 6.66213 0.1
9.17936 7.68419 0.1
9.85922 7.57796 0.1
8.76256 7.28829 0.1
9.38426 6.90812 0.1
8.92185 7.46489 0.1
9.02088 7.58931 0.1
9.52889 7.66584 0.1
8.77428 6.9572 0.1
9.79217 7.11621 0.1
9.14334 7.82286 0.1
9.23019 7.21456 0.1
8.76547 7.42416 0.1
8.78426 6.45 0.1
10.05 7.73427 0.1
9.02751 7.71032 0.1
9.75 7.78105 0.1
8.64858 7.43517 0.1
9.37911 7.79108 0.1
9.35145 7.59348 0.1
8.67575 6.75137 0.1
8.82688 7.51565 0.1
8.89755 7.56932 0.1
9.00894 6.90235 0.1
9.31754 6.58936 0.1
8.99619 7.31062 0.1
8.67317 7.1143 0.1
8.70809 6.25 0.1
10.2334 7.80568 0.1
9.45268 7.13775 0.1
[...]
    <PointData>
      <DataArray type="Float64" NumberOfComponents="3" Name="Velocity" format="ascii">
0 0 0
0 0 0
0 0 0
0 0 0
1.04622 0.0025499 0
0.936594 -6.36075e-06 0
1.04605 -0.00258666 0
0.936432 -6.32365e-06 0
1.03313 -0.00104802 0
0.972456 -1.44427e-05 0
1.03294 0.000919682 0
0.975227 -7.98951e-06 0
0 0 0
0 0 0
0 0 0
0 0 0
0 0 0
0 0 0
0 0 0
0 0 0
0 0 0
0 0 0
0 0 0
0 0 0
0 0 0
0 0 0
0 0 0
0 0 0
0 0 0
0 0 0
0 0 0
0 0 0
0 0 0
0 0 0
0 0 0
0 0 0
0 0 0
0 0 0
0 0 0
0 0 0
0 0 0
0 0 0
0 0 0
0 0 0
0 0 0
0 0 0
0 0 0
0 0 0
0 0 0
0 0 0
0 0 0
0 0 0
0 0 0
0 0 0
0 0 0
0 0 0
0 0 0
0 0 0
0 0 0
0 0 0
0 0 0
0 0 0
0 0 0
0 0 0
0 0 0
0 0 0
0 0 0
0 0 0
0 0 0
0 0 0
0 0 0
0 0 0
0 0 0
0 0 0
0 0 0
0 0 0
0 0 0
0 0 0
0 0 0
0 0 0
0 0 0
0 0 0
0 0 0
0 0 0
0 0 0
0 0 0
0 0 0
0 0 0
0 0 0
0 0 0
0 0 0
0 0 0
0 0 0
0 0 0
0 0 0
0 0 0
0 0 0
0 0 0
0 0 0
0 0 0
0 0 0
0 0 0
0 0 0
0 0 0
0 0 0
0 0 0
0 0 0
0 0 0
0 0 0
0 0 0
0 0 0
0 0 0
0 0 0
0 0 0
0 0 0
0 0 0
0 0 0
0 0 0
0 0 0
0 0 0
0 0 0
0 0 0
0 0 0
0 0 0
0 0 0
0 0 0
0 0 0
0 0 0
0 0 0
0 0 0
0 0 0
0 0 0
0 0 0
0 0 0
0 0 0
0 0 0
0 0 0
0 0 0
0 0 0
0 0 0
0 0 0
0 0 0
0 0 0
0 0 0
0 0 0
0 0 0
0 0 0
0 0 0
0 0 0
0 0 0
0 0 0
0 0 0
0 0 0
0 0 0
0 0 0
0 0 0
0 0 0
0 0 0
0 0 0
0 0 0
0 0 0
0 0 0
0 0 0
0 0 0
0 0 0
0 0 0
0 0 0
0 0 0
1.05049 0.0138144 0
1.05285 0.0257555 0
1.05174 0.0374635 0
1.04477 0.0508645 0
1.03343 0.060147 0
1.02062 0.0662525 0
1.00608 0.0680623 0
0.992704 0.0648384 0
0.977973 0.0611234 0
0.96386 0.0541873 0
0.951928 0.0439259 0
0.942696 0.0308326 0
0.938019 0.0154471 0
1.0489 0.00580986 0
1.05225 0.0185304 0
1.05266 0.0317691 0
1.0495 0.0444303 0
1.03987 0.055131 0
1.02723 0.063452 0
1.01422 0.0681305 0
0.997923 0.0686964 0
0.983521 0.0648441 0
0.969332 0.058814 0
0.956276 0.0497309 0
0.946392 0.0376615 0
0.93947 0.0234592 0
0.936058 0.0081353 0
0.93792 -0.0155102 0
0.942563 -0.0307622 0
0.951608 -0.0437803 0
0.964133 -0.053853 0
0.97871 -0.061108 0
0.991974 -0.0651468 0
1.00671 -0.069217 0
1.0211 -0.0662898 0
1.03472 -0.0603652 0
1.04631 -0.0503375 0
1.05218 -0.0385962 0
1.05362 -0.0269594 0
1.04837 -0.0131618 0
0.936083 -0.0081335 0
0.939539 -0.0235332 0
0.946502 -0.0377035 0
0.956311 -0.049654 0
0.968818 -0.0586938 0
0.983234 -0.0647658 0
0.999455 -0.0688684 0
1.01483 -0.0687426 0
1.02853 -0.0648426 0
1.04175 -0.0565039 0
1.05148 -0.0449337 0
1.05359 -0.0317056 0
1.05204 -0.0187358 0
1.04824 -0.00569177 0
1.04537 0.0113134 0
1.04373 0.0240175 0
1.03902 0.0347801 0
1.0317 0.0440327 0
1.02167 0.0516964 0
1.00874 0.0575362 0
0.995094 0.0607828 0
0.98232 0.0599035 0
0.971289 0.0551104 0
0.961173 0.047135 0
0.952109 0.0365974 0
0.94366 0.0248269 0
0.938306 0.0125932 0
1.04521 0.00623742 0
1.04472 0.0179128 0
1.04151 0.0305951 0
1.03509 0.0408213 0
1.0266 0.0485063 0
1.01572 0.0551711 0
1.00265 0.0591115 0
0.989237 0.0603563 0
0.976879 0.0579497 0
0.965716 0.0517014 0
0.956255 0.0421812 0
0.947903 0.030913 0
0.940826 0.0187494 0
0.937048 0.00633869 0
0.938294 -0.0126022 0
0.943707 -0.0248437 0
0.95214 -0.0365963 0
0.961125 -0.0472398 0
0.970899 -0.0551712 0
0.982522 -0.0600803 0
0.995006 -0.0607959 0
1.00878 -0.0576866 0
1.02224 -0.0518462 0
1.03172 -0.0435175 0
1.03928 -0.0349014 0
1.04409 -0.0238662 0
1.04504 -0.0113768 0
0.937044 -0.0063582 0
0.940846 -0.0187785 0
0.94791 -0.0309131 0
0.956314 -0.0421986 0
0.965871 -0.051679 0
0.977011 -0.0579539 0
0.989355 -0.0604545 0
1.00263 -0.0591086 0
1.01582 -0.0551287 0
1.02667 -0.0488061 0
1.03525 -0.0408779 0
1.04174 -0.0306511 0
1.04473 -0.0178543 0
1.0456 -0.00606016 0
1.03309 0.00535304 0
1.03071 0.0122276 0
1.02728 0.0181839 0
1.02239 0.0229635 0
1.01661 0.0265604 0
1.00968 0.0291254 0
1.00335 0.0299307 0
0.997479 0.0292048 0
0.990449 0.0270832 0
0.984171 0.0233042 0
0.979592 0.0181299 0
0.975968 0.0122243 0
0.973297 0.0062727 0
1.03315 0.00228343 0
1.03212 0.00863706 0
1.02933 0.0153901 0
1.02537 0.0206788 0
1.01999 0.024786 0
1.01364 0.0278279 0
1.00681 0.0296978 0
1.00067 0.0296059 0
0.994082 0.0281506 0
0.987161 0.0254325 0
0.981788 0.0208337 0
0.977729 0.0152227 0
0.974599 0.00929868 0
0.972728 0.00321951 0
0.973299 -0.00628658 0
0.975966 -0.0122319 0
0.979609 -0.0181135 0
0.984266 -0.0233766 0
0.990503 -0.0269822 0
0.997517 -0.0290586 0
1.00355 -0.0298852 0
1.01004 -0.0290618 0
1.01698 -0.026479 0
1.02262 -0.0229843 0
1.02719 -0.0181316 0
1.03053 -0.0123081 0
1.03254 -0.0053656 0
0.972723 -0.00322676 0
0.974582 -0.00929464 0
0.977699 -0.0152192 0
0.981804 -0.020832 0
0.987126 -0.0254142 0
0.994043 -0.0281952 0
1.00058 -0.0295816 0
1.00665 -0.0296849 0
1.01359 -0.0279233 0
1.02 -0.0248891 0
1.02514 -0.0206905 0
1.02949 -0.0154018 0
1.03192 -0.00878516 0
1.03303 -0.00203104 0
1.03166 0.00686696 0
1.02903 0.0129268 0
1.02558 0.0182826 0
1.02109 0.0230297 0
1.01535 0.0265693 0
1.00879 0.0285346 0
1.00279 0.0286003 0
0.996894 0.0274123 0
0.990595 0.0260478 0
0.984792 0.0244468 0
0.979831 0.020151 0
0.976645 0.013451 0
0.975528 0.00643071 0
1.0325 0.00397719 0
1.03043 0.00974033 0
1.02762 0.0156561 0
1.02367 0.0208133 0
1.01847 0.0249349 0
1.01229 0.027708 0
1.00589 0.0288552 0
1.00004 0.0280544 0
0.993833 0.0264745 0
0.98785 0.0253456 0
0.982344 0.0225922 0
0.977991 0.0169442 0
0.975918 0.00997516 0
0.97529 0.0032381 0
0.975495 -0.00643422 0
0.97657 -0.0135123 0
0.979785 -0.0201285 0
0.98485 -0.024526 0
0.99059 -0.0261828 0
0.996806 -0.0273824 0
1.00273 -0.0284647 0
1.00889 -0.0285317 0
1.01539 -0.0265088 0
1.02114 -0.0229984 0
1.0258 -0.0184143 0
1.02902 -0.0129346 0
1.03182 -0.00707414 0
0.975283 -0.00325469 0
0.975954 -0.0100458 0
0.978047 -0.0169755 0
0.982448 -0.0225123 0
0.987897 -0.0253691 0
0.993876 -0.0265237 0
0.99996 -0.0279725 0
1.00585 -0.0288804 0
1.01223 -0.0277281 0
1.01845 -0.0248948 0
1.02365 -0.020725 0
1.0276 -0.0157252 0
1.03065 -0.00974934 0
1.03267 -0.00382656 0
1.08385 -0.00246084 0
1.09578 -0.00320648 0
1.10476 -0.00331821 0
1.11798 -0.00409224 0
1.13238 -0.00494901 0
1.15116 -0.00605391 0
1.17372 -0.00754176 0
1.20219 -0.00957654 0
1.23867 -0.0124763 0
1.28665 -0.0166755 0
1.35031 -0.0234858 0
1.43794 -0.0341393 0
1.56719 -0.054287 0
1.70558 -0.0686929 0
1.06889 0.000107394 0
1.09267 -0.00310872 0
1.09938 -0.00311733 0
1.11125 -0.00379532 0
1.12488 -0.00449526 0
1.14131 -0.00547224 0
1.16171 -0.00674185 0
1.18695 -0.00846683 0
1.21914 -0.0109046 0
1.26068 -0.0143517 0
1.31534 -0.019551 0
1.39084 -0.0278805 0
1.49572 -0.0412233 0
1.64422 -0.0709992 0
1.70422 -0.129594 0
0.0994494 0.00232651 0
0.368264 5.48463e-06 0
0.526729 0.000376518 0
0.633879 0.000420615 0
0.708581 0.000105401 0
0.761729 7.00676e-05 0
0.802837 0.000129759 0
0.833838 0.000105316 0
0.858561 1.0566e-05 0
0.878044 4.36073e-06 0
0.894267 -7.94319e-06 0
0.907561 -6.30939e-06 0
0.918566 -8.31098e-06 0
0.928127 -9.19171e-06 0
-0.0221729 -0.00444068 0
0.245956 0.0024436 0
0.456233 0.000382327 0
0.584824 0.000617569 0
0.674018 0.000194731 0
0.737112 0.000153268 0
0.783552 9.54437e-05 0
0.819267 3.44539e-05 0
0.846879 -2.10088e-06 0
0.86883 6.93009e-06 0
0.886536 -7.87532e-06 0
0.901191 7.1419e-07 0
0.913297 -7.19066e-06 0
0.923542 -7.96946e-06 0
0.932462 4.22359e-06 0
1.73128 0.0772576 0
1.57487 0.0555691 0
1.43701 0.0337115 0
1.34997 0.0228588 0
1.28674 0.0168209 0
1.23854 0.0124814 0
1.20225 0.00952062 0
1.17383 0.0076117 0
1.15121 0.00614845 0
1.13234 0.00497891 0
1.11794 0.00414783 0
1.10472 0.00319508 0
1.09588 0.00291798 0
1.0839 0.00215251 0
1.69837 0.136005 0
1.63476 0.0594151 0
1.49577 0.039733 0
1.3911 0.0276794 0
1.31478 0.0195465 0
1.26053 0.0143834 0
1.21903 0.0109325 0
1.18672 0.00854126 0
1.16157 0.00679979 0
1.14128 0.00554742 0
1.12483 0.00450727 0
1.11133 0.00373343 0
1.09909 0.00287515 0
1.09276 0.00296298 0
1.06835 -0.000183419 0
0.930598 -6.67744e-06 0
0.92333 -3.022e-06 0
0.914046 -8.63938e-06 0
0.902493 -1.26047e-05 0
0.887991 -1.53327e-05 0
0.870454 -1.67679e-05 0
0.848388 -1.73058e-05 0
0.821277 -1.9275e-05 0
0.78579 -2.2083e-05 0
0.740365 -2.57324e-05 0
0.677674 -2.97936e-05 0
0.592395 -3.08546e-05 0
0.470836 4.14376e-06 0
0.271217 0.000122604 0
0.933575 -9.48606e-06 0
0.927195 -5.45268e-06 0
0.918966 -2.46183e-06 0
0.908575 -9.31466e-06 0
0.895623 -1.32265e-05 0
0.879698 -1.66541e-05 0
0.860077 -1.73648e-05 0
0.835677 -1.79991e-05 0
0.804721 -2.04189e-05 0
0.764682 -2.3589e-05 0
0.711431 -2.78197e-05 0
0.638482 -3.47886e-05 0
0.537406 -4.95194e-05 0
0.382902 -7.22065e-05 0
0.144441 -0.000287581 0
1.04265 -0.00129702 0
1.05803 -0.00129991 0
1.03666 -0.00125808 0
1.04983 -0.0012968 0
1.05142 -0.0013892 0
0.952876 -6.23855e-06 0
0.965236 -1.23651e-05 0
0.945138 -1.25009e-05 0
0.959927 -3.13128e-06 0
0.96917 2.94284e-07 0
1.05787 0.00193241 0
1.04233 0.00117118 0
1.05157 0.00130523 0
1.05003 0.00126068 0
1.03672 0.00102794 0
0.966289 -9.93018e-06 0
0.953109 -1.05728e-06 0
0.971252 -1.21788e-05 0
0.96009 -1.80431e-05 0
0.945231 -2.3559e-06 0
0.930412 0.21865 0
1.17935 0.247043 0
0.995177 0.425206 0
1.11449 0.0885806 0
0.694815 0.419947 0
0.890397 0.083402 0
1.42244 0.290045 0
1.04361 0.141643 0
1.14358 0.598118 0
0.914144 0.676225 0
0.806758 0.153108 0
1.22754 0.107796 0
0.968223 0.111137 0
0.430496 0.421895 0
1.03755 0.251693 0
1.5367 0.498169 0
1.116 0.0361854 0
0.897064 0.0401468 0
0.667005 0.772168 0
0.83638 0.0641338 0
1.85893 0.313749 0
0.683466 0.174784 0
0.806827 0.266129 0
1.1804 0.0406146 0
1.40925 0.799725 0
1.14459 0.893561 0
1.14065 0.14314 0
1.06483 0.0910752 0
1.15503 0.37586 0
1.33739 0.107771 0
1.09711 0.0186306 0
0.915084 0.0215383 0
0.996843 0.17577 0
0.884679 0.151233 0
0.9431 0.0769382 0
1.00803 0.103493 0
0.81007 0.781417 0
1.33866 0.441306 0
0.929067 0.304318 0
1.08512 0.0565923 0
0.830366 0.450016 0
0.758898 0.0833615 0
1.09629 0.19248 0
0.946393 0.156675 0
0.110092 0.301375 0
0.295008 0.5193 0
0.929177 0.111115 0
1.54481 0.148963 0
1.2851 0.221991 0
1.08503 0.12074 0
0.51302 0.196913 0
1.52655 0.565557 0
1.16136 0.0956669 0
0.930994 0.0479721 0
1.14299 0.025837 0
0.872791 0.0374719 0
1.05154 0.316061 0
0.968611 0.540645 0
1.2505 0.0564942 0
0.869399 0.113769 0
1.20359 0.164857 0
1.04648 0.739909 0
1.12589 0.0165748 0
0.856677 0.18615 0
1.04296 0.187513 0
1.94319 0.106666 0
1.13881 0.0590994 0
1.03599 0.101289 0
1.23332 0.305712 0
0.781668 0.551831 0
0.99637 0.126427 0
0.332589 0.373768 0
0.511845 0.477381 0
0.887856 0.0189329 0
0.720161 0.261004 0
0.778029 0.359745 0
0.539267 0.564031 0
1.15244 0.505292 0
1.09637 0.274524 0
0.987808 0.0864007 0
0.692816 0.0761984 0
0.791807 0.0451192 0
0.973666 0.253321 0
0.761206 0.199989 0
0.967902 0.0889516 0
1.34365 0.511921 0
0.202198 0.302548 0
0.870931 0.064175 0
1.09797 0.0379114 0
1.27201 0.606468 0
0.343299 0.259961 0
1.12454 0.318013 0
0.910651 0.0612713 0
1.2178 0.0240472 0
1.42261 0.0782691 0
1.01488 0.708213 0
1.53637 0.306713 0
-0.008238 0.0769367 0
0.0324554 0.150924 0
0.567514 0.335031 0
1.08776 0.00783765 0
0.924856 0.0121961 0
1.30895 0.0407993 0
1.0885 0.0768383 0
1.06288 0.0633639 0
0.906905 0.386556 0
0.811073 0.0843619 0
1.07505 0.152661 0
1.03721 0.0792739 0
1.15408 0.189082 0
0.351522 0.312035 0
0.831595 0.0310679 0
1.11355 0.059315 0
0.0646916 0.0865899 0
1.26583 0.149616 0
0.879234 0.247077 0
1.40592 0.179601 0
1.16315 0.0176825 0
0.991122 0.353893 0
0.902152 0.0123454 0
1.10955 0.00924151 0
0.877542 0.179762 0
0.588848 0.105888 0
0.7407 0.136768 0
0.874193 0.529762 0
1.44823 -0.0167777 0
0.922485 0.0874542 0
1.14309 0.142194 0
0.971578 0.202938 0
1.08163 0.896769 0
0.184352 0.191934 0
1.07619 0.401634 0
0.862649 0.828893 0
1.30525 0.837266 0
1.20385 0.0659388 0
1.17667 0.126283 0
1.42852 0.397542 0
1.02419 0.122558 0
-0.0339874 0.000119607 0
0.913958 0.00965096 0
1.09844 0.00623329 0
1.01712 0.0837534 0
1.62433 0.117346 0
1.57086 0.682394 0
0.918017 0.172053 0
1.11351 0.115062 0
0.948472 0.0983771 0
0.452211 0.256977 0
0.915304 0.0381365 0
0.013956 0.0146849 0
1.07781 0.00476566 0
0.931348 0.00737928 0
0.850159 0.143219 0
1.27877 0.0935312 0
0.870024 0.0160318 0
1.23569 0.508583 0
1.10939 0.0237409 0
1.00469 0.213806 0
1.14258 0.00953514 0
0.945837 0.0592972 0
0.859543 0.311331 0
0.976855 0.146185 0
1.05603 0.119647 0
-0.0326395 -0.0133292 0
1.15113 0.299533 0
1.01483 0.148369 0
0.902796 0.113747 0
1.00426 0.293768 0
1.75884 0.454926 0
0.928541 0.0284654 0
1.32457 0.327024 0
1.00257 0.0841329 0
0.74292 0.0414157 0
0.90328 0.0264865 0
0.921619 0.138042 0
0.948216 0.126711 0
1.07595 0.0418344 0
0.985798 0.105365 0
0.504613 0.157652 0
1.08338 0.0244286 0
0.616945 0.234079 0
0.852601 0.0221658 0
0.962808 0.0708981 0
0.552996 0.699468 0
1.34837 0.236952 0
0.930137 0.0666021 0
1.49982 0.0425954 0
1.18741 0.0129926 0
0.143102 0.204294 0
1.25054 0.410945 0
1.109 0.153853 0
0.820147 0.212158 0
1.07849 0.22688 0
1.0503 0.0708356 0
0.927664 0.256213 0
0.889867 0.0578076 0
1.1663 0.069067 0
0.928667 0.473741 0
1.15373 0.0425367 0
1.22004 0.212877 0
1.13935 0.0820791 0
1.33145 0.666878 0
0.891624 0.197831 0
0.466577 0.0982894 0
1.18818 0.0934003 0
1.04182 0.482743 0
1.13157 0.0413832 0
0.78762 0.11453 0
1.09474 0.0973322 0
1.12407 0.236901 0
0.463358 0.298515 0
0.76515 0.444199 0
0.854291 0.0859192 0
1.48848 0.230733 0
1.36678 0.0321878 0
1.04448 0.602443 0
1.32122 0.174607 0
0.923864 0.599859 0
1.25987 0.0181136 0
1.00605 0.0484821 0
0.852587 0.0440438 0
1.10209 0.338758 0
0.256937 0.0873117 0
1.13957 0.110462 0
0.978975 0.0773881 0
0.70033 0.655056 0
1.1696 0.155851 0
0.989576 0.846807 0
0.139181 0.101927 0
0.83104 0.115731 0
0.946956 0.184376 0
0.670033 0.327081 0
1.13942 0.776033 0
1.06741 0.0543793 0
0.285223 0.485513 0
0.967489 0.173128 0
0.479333 0.585979 0
0.976003 0.0975313 0
0.967414 0.0989477 0
0.977938 0.1086 0
0.18681 0.396144 0
0.311191 0.385462 0
0.236287 0.315814 0
0.978287 0.0890018 0
0.987937 0.0964232 0
0.775792 0.0246246 0
0.795476 0.0217607 0
1.10618 0.0368797 0
1.10583 0.0470943 0
1.11558 0.0475972 0
1.617 0.0215306 0
1.6696 0.0377411 0
0.871514 0.419843 0
0.839325 0.379592 0
0.800413 0.406003 0
0.449834 0.623806 0
0.424443 0.559099 0
0.291197 0.517955 0
0.881564 0.58482 0
0.830111 0.540571 0
0.841876 0.617037 0
1.5377 0.000250862 0
1.58163 0.0708606 0
0.871916 0.167476 0
0.874006 0.193086 0
0.886554 0.173395 0
0.891853 0.0299906 0
0.880361 0.0273729 0
0.885606 0.0392234 0
1.11512 0.0733191 0
1.10165 0.0697736 0
1.1007 0.0829176 0
0.751703 0.0192727 0
0.769094 0.0435475 0
0.813108 0.0371189 0
0.816647 0.0171777 0
1.1225 0.00565515 0
1.12983 0.00625921 0
0.882478 0.00998299 0
0.890458 0.0090717 0
1.07392 0.104414 0
1.09092 0.109015 0
1.07817 0.09546 0
0.871056 0.0504341 0
0.880765 0.0608079 0
0.880584 0.0483223 0
0.893319 0.0483946 0
1.13408 0.0207549 0
1.1295 0.0283866 0
1.13756 0.0340404 0
1.69591 0.25572 0
1.66267 0.144692 0
1.9044 0.21196 0
1.08463 0.170765 0
1.06126 0.170473 0
1.06858 0.192428 0
0.937295 0.0396566 0
0.942497 0.0476048 0
1.0962 0.135863 0
1.11318 0.133423 0
1.09896 0.118921 0
1.08821 0.0656671 0
1.09858 0.0585454 0
0.632707 0.387399 0
0.545539 0.427205 0
0.630738 0.480843 0
1.06121 0.105145 0
1.06975 0.121334 0
0.373745 0.478703 0
0.380874 0.347471 0
0.894112 0.130763 0
0.887087 0.114662 0
0.875331 0.132734 0
0.831509 0.0152383 0
1.21068 0.00628576 0
1.22911 0.0071066 0
1.59125 0.135105 0
1.52805 0.0891745 0
1.04466 0.281748 0
1.07676 0.29613 0
1.06468 0.264804 0
0.475006 0.497407 0
0.506907 0.370138 0
0.84545 0.25848 0
0.847892 0.232005 0
0.81321 0.23694 0
1.15759 0.00503947 0
1.16912 0.00569614 0
0.825597 0.683936 0
0.907345 0.75983 0
1.14712 0.00208502 0
1.15243 0.013288 0
0.0676168 0.0712835 0
0.0667153 0.043407 0
1.09299 0.0466726 0
0.905659 0.184416 0
0.90031 0.163028 0
0.661325 0.0424327 0
0.696963 0.0363176 0
1.23417 0.792962 0
0.790428 0.508145 0
1.07345 0.622778 0
1.23747 0.0217965 0
1.24941 0.00199472 0
0.698772 0.218881 0
0.741468 0.22809 0
0.724152 0.190311 0
1.30131 0.267272 0
1.33923 0.280764 0
1.31297 0.229256 0
1.27383 0.318167 0
1.26396 0.265335 0
0.766293 0.266589 0
0.744182 0.311727 0
0.792812 0.309019 0
1.19033 0.546306 0
1.22786 0.64096 0
1.24898 0.562233 0
1.00539 0.511755 0
0.983369 0.482682 0
0.945104 0.508635 0
0.0179481 0.0095968 0
0.01171 -0.0200446 0
1.27786 0.511086 0
1.34712 0.581547 0
0.839426 0.198606 0
0.865045 0.216011 0
0.879785 0.348444 0
0.822517 0.33655 0
1.73133 0.202801 0
1.59079 0.216675 0
1.67013 0.311589 0
1.37438 0.832199 0
1.27073 0.858324 0
1.08133 0.136203 0
1.09131 0.154379 0
0.870293 0.843186 0
0.703495 0.746499 0
0.574457 0.605575 0
0.63676 0.145946 0
0.596718 0.171022 0
0.652109 0.200438 0
1.11276 0.826732 0
1.24224 0.888112 0
0.956833 0.330175 0
0.997029 0.320934 0
0.96705 0.302034 0
1.24101 0.083387 0
1.22558 0.0622889 0
1.21589 0.0849059 0
0.73926 0.386901 0
0.72596 0.348538 0
0.678956 0.37429 0
1.1981 0.342689 0
1.19004 0.305785 0
1.15304 0.334685 0
0.899117 0.498903 0
0.92109 0.537589 0
0.683852 0.122507 0
0.64574 0.0888092 0
0.78129 0.234279 0
-0.0153571 -0.0494991 0
-0.0139416 -0.0748133 0
1.12327 0.0386494 0
1.12149 0.0268987 0
1.04385 0.162575 0
1.0582 0.148119 0
0.987418 0.273185 0
0.953612 0.277935 0
1.0184 0.183598 0
1.02672 0.166812 0
1.00655 0.161563 0
0.971316 0.127531 0
0.98808 0.136281 0
0.981523 0.119968 0
0.880299 0.0972883 0
0.895236 0.0987423 0
1.12546 0.0598217 0
1.12577 0.0693782 0
1.13979 0.0701017 0
1.25161 0.102235 0
1.26412 0.0736845 0
1.55913 0.220623 0
1.45587 0.436909 0
1.39098 0.450552 0
1.43555 0.52031 0
0.82438 0.0732427 0
0.834002 0.0859011 0
0.844826 0.0755907 0
0.761041 0.607305 0
0.72913 0.484438 0
0.691819 0.514647 0
1.20565 0.274528 0
1.23223 0.255472 0
1.20111 0.230951 0
0.860183 0.127801 0
0.868065 0.148493 0
1.25141 0.218653 0
0.719238 0.0561741 0
0.724926 0.0223044 0
1.21861 0.136965 0
1.23346 0.159797 0
1.2457 0.126474 0
1.75748 0.102564 0
1.88918 -0.0171531 0
0.819721 0.100784 0
0.843027 0.0995905 0
0.937915 0.0542295 0
0.949174 0.0521326 0
1.02947 0.146173 0
0.811201 0.181892 0
0.830304 0.172047 0
1.16794 0.273385 0
0.567954 0.220156 0
0.550862 0.146637 0
0.935958 0.0307069 0
0.928307 0.0382921 0
0.786723 0.084616 0
0.799902 0.0657509 0
0.775475 0.0621902 0
1.0174 0.452676 0
0.969259 0.452209 0
1.13 0.539543 0
1.08585 0.540716 0
1.09392 0.602059 0
0.749654 0.062964 0
1.05833 0.206716 0
1.04152 0.216387 0
1.05902 0.240629 0
1.11276 0.0296553 0
1.10365 0.0307215 0
0.696729 0.292462 0
1.06963 0.38624 0
0.942576 0.374902 0
0.369056 0.124537 0
0.767023 0.811464 0
0.77785 0.747041 0
0.710115 0.740729 0
0.958603 0.118777 0
0.961003 0.137515 0
0.921926 0.0254689 0
0.925944 0.020578 0
0.919938 0.0166269 0
-0.0364893 -0.0968011 0
-0.0289188 -0.0932617 0
1.67037 0.499096 0
1.62984 0.373997 0
1.54397 0.390209 0
1.05103 0.0862542 0
1.03861 0.0904623 0
1.05029 0.0979363 0
1.03846 0.416287 0
1.02942 0.379476 0
0.993033 0.386551 0
0.591839 0.701213 0
0.444187 0.594588 0
0.328939 0.44004 0
1.1267 0.127928 0
1.12479 0.149458 0
0.721454 0.780496 0
0.418179 0.487489 0
0.903251 0.0513187 0
0.912345 0.0491474 0
0.906751 0.0392477 0
0.885169 0.220334 0
0.973728 0.0826046 0
0.971265 0.0741139 0
0.965111 0.0793296 0
0.774667 0.147375 0
0.748354 0.168598 0
0.785604 0.174459 0
0.870892 0.752436 0
0.434203 0.373787 0
0.85692 0.700807 0
1.18315 0.201579 0
1.16544 0.214965 0
1.02586 0.201683 0
1.01928 0.232574 0
1.02274 0.103819 0
1.02724 0.0936328 0
1.01647 0.0943574 0
1.05036 0.130511 0
1.03996 0.122751 0
1.03291 0.132112 0
0.713555 0.153023 0
0.71408 0.10899 0
0.999735 0.570426 0
1.05671 0.527081 0
0.873453 0.0852404 0
0.860569 0.100319 0
1.47417 0.106386 0
1.41964 0.127897 0
1.46627 0.167569 0
1.19846 0.0338069 0
1.20178 0.0180679 0
1.18474 0.0272462 0
0.87582 0.468212 0
1.36502 0.704293 0
1.25628 0.037982 0
1.23362 0.0387756 0
1.60033 0.307908 0
0.995879 0.16976 0
0.873796 0.00756612 0
0.879347 0.0176282 0
1.04498 0.110182 0
0.801201 0.490954 0
0.848565 0.488839 0
1.09216 0.0861614 0
1.07787 0.0859069 0
1.08831 0.209422 0
0.769737 0.491177 0
0.729657 0.434717 0
1.13387 0.0134391 0
1.13761 0.00189521 0
0.673354 0.252427 0
1.1266 0.0861241 0
0.852033 0.16419 0
0.830054 0.148847 0
1.06426 0.1347 0
0.617291 0.61741 0
0.939137 0.10435 0
0.934891 0.0938395 0
0.925135 0.0987577 0
0.815218 0.0564198 0
1.2124 0.0456508 0
1.17943 0.179272 0
1.21222 0.187036 0