<?xml version="1.0"?>
<VTKFile type="UnstructuredGrid">
  <UnstructuredGrid>
  <Piece NumberOfPoints="3321"  NumberOfCells="1600">
    <Points>
      <DataArray type="Float64" NumberOfComponents="3" format="ascii">
0 0 0.1
1 0 0.1
1 0.5 0.1
0 0.5 0.1
0.025 0 0.1
0.05 0 0.1
0.075 0 0.1
0.1 0 0.1
0.125 0 0.1
0.15 0 0.1
0.175 0 0.1
0.2 0 0.1
0.225 0 0.1
0.25 0 0.1
0.275 0 0.1
0.3 0 0.1
0.325 0 0.1
0.35 0 0.1
0.375 0 0.1
0.4 0 0.1
0.425 0 0.1
0.45 0 0.1
0.475 0 0.1
0.5 0 0.1
0.525 0 0.1
0.55 0 0.1
0.575 0 0.1
0.6 0 0.1
0.625 0 0.1
0.65 0 0.1
0.675 0 0.1
0.7 0 0.1
0.725 0 0.1
0.75 0 0.1
0.775 0 0.1
0.8 0 0.1
0.825 0 0.1
0.85 0 0.1
0.875 0 0.1
0.9 0 0.1
0.925 0 0.1
0.95 0 0.1
0.975 0 0.1
0.0125 0 0.1
0.0375 0 0.1
0.0625 0 0.1
0.0875 0 0.1
0.1125 0 0.1
0.1375 0 0.1
0.1625 0 0.1
0.1875 0 0.1
0.2125 0 0.1
0.2375 0 0.1
0.2625 0 0.1
0.2875 0 0.1
0.3125 0 0.1
0.3375 0 0.1
0.3625 0 0.1
0.3875 0 0.1
0.4125 0 0.1
0.4375 0 0.1
0.4625 0 0.1
0.4875 0 0.1
0.5125 0 0.1
0.5375 0 0.1
0.5625 0 0.1
0.5875 0 0.1
0.6125 0 0.1
0.6375 0 0.1
0.6625 0 0.1
0.6875 0 0.1
0.7125 0 0.1
0.7375 0 0.1
0.7625 0 0.1
0.7875 0 0.1
0.8125 0 0.1
0.8375 0 0.1
0.8625 0 0.1
0.8875 0 0.1
0.9125 0 0.1
0.9375 0 0.1
0.9625 0 0.1
0.9875 0 0.1
1 0.025 0.1
1 0.05 0.1
1 0.075 0.1
1 0.1 0.1
1 0.125 0.1
1 0.15 0.1
1 0.175 0.1
1 0.2 0.1
1 0.225 0.1
1 0.25 0.1
1 0.275 0.1
1 0.3 0.1
1 0.325 0.1
1 0.35 0.1
1 0.375 0.1
1 0.4 0.1
1 0.425 0.1
1 0.45 0.1
1 0.475 0.1
1 0.0125 0.1
1 0.0375 0.1
1 0.0625 0.1
1 0.0875 0.1
1 0.1125 0.1
1 0.1375 0.1
1 0.1625 0.1
1 0.1875 0.1
1 0.2125 0.1
1 0.2375 0.1
1 0.2625 0.1
1 0.2875 0.1
1 0.3125 0.1
1 0.3375 0.1
1 0.3625 0.1
1 0.3875 0.1
1 0.4125 0.1
1 0.4375 0.1
1 0.4625 0.1
1 0.4875 0.1
0.975 0.5 0.1
0.95 0.5 0.1
0.925 0.5 0.1
0.9 0.5 0.1
0.875 0.5 0.1
0.85 0.5 0.1
0.825 0.5 0.1
0.8 0.5 0.1
0.775 0.5 0.1
0.75 0.5 0.1
0.725 0.5 0.1
0.7 0.5 0.1
0.675 0.5 0.1
0.65 0.5 0.1
0.625 0.5 0.1
0.6 0.5 0.1
0.575 0.5 0.1
0.55 0.5 0.1
0.525 0.5 0.1
0.5 0.5 0.1
0.475 0.5 0.1
0.45 0.5 0.1
0.425 0.5 0.1
0.4 0.5 0.1
0.375 0.5 0.1
0.35 0.5 0.1
0.325 0.5 0.1
0.3 0.5 0.1
0.275 0.5 0.1
0.25 0.5 0.1
0.225 0.5 0.1
0.2 0.5 0.1
0.175 0.5 0.1
0.15 0.5 0.1
0.125 0.5 0.1
0.1 0.5 0.1
0.075 0.5 0.1
0.05 0.5 0.1
0.025 0.5 0.1
0.9875 0.5 0.1
0.9625 0.5 0.1
0.9375 0.5 0.1
0.9125 0.5 0.1
0.8875 0.5 0.1
0.8625 0.5 0.1
0.8375 0.5 0.1
0.8125 0.5 0.1
0.7875 0.5 0.1
0.7625 0.5 0.1
0.7375 0.5 0.1
0.7125 0.5 0.1
0.6875 0.5 0.1
0.6625 0.5 0.1
0.6375 0.5 0.1
0.6125 0.5 0.1
0.5875 0.5 0.1
0.5625 0.5 0.1
0.5375 0.5 0.1
0.5125 0.5 0.1
0.4875 0.5 0.1
0.4625 0.5 0.1
0.4375 0.5 0.1
0.4125 0.5 0.1
0.3875 0.5 0.1
0.3625 0.5 0.1
0.3375 0.5 0.1
0.3125 0.5 0.1
0.2875 0.5 0.1
0.2625 0.5 0.1
0.2375 0.5 0.1
0.2125 0.5 0.1
0.1875 0.5 0.1
0.1625 0.5 0.1
0.1375 0.5 0.1
0.1125 0.5 0.1
0.0875 0.5 0.1
0.0625 0.5 0.1
0.0375 0.5 0.1
0.0125 0.5 0.1
0 0.475 0.1
0 0.45 0.1
0 0.425 0.1
0 0.4 0.1
0 0.375 0.1
0 0.35 0.1
0 0.325 0.1
0 0.3 0.1
0 0.275 0.1
0 0.25 0.1
0 0.225 0.1
0 0.2 0.1
0 0.175 0.1
0 0.15 0.1
0 0.125 0.1
0 0.1 0.1
0 0.075 0.1
0 0.05 0.1
0 0.025 0.1
0 0.4875 0.1
0 0.4625 0.1
0 0.4375 0.1
0 0.4125 0.1
0 0.3875 0.1
0 0.3625 0.1
0 0.3375 0.1
0 0.3125 0.1
0 0.2875 0.1
0 0.2625 0.1
0 0.2375 0.1
0 0.2125 0.1
0 0.1875 0.1
0 0.1625 0.1
0 0.1375 0.1
0 0.1125 0.1
0 0.0875 0.1
0 0.0625 0.1
0 0.0375 0.1
0 0.0125 0.1
0.975 0.475 0.1
0.975 0.45 0.1
0.975 0.425 0.1
0.975 0.4 0.1
0.975 0.375 0.1
0.975 0.35 0.1
0.975 0.325 0.1
0.975 0.3 0.1
0.975 0.275 0.1
0.975 0.25 0.1
0.975 0.225 0.1
0.975 0.2 0.1
0.975 0.175 0.1
0.975 0.15 0.1
0.975 0.125 0.1
0.975 0.1 0.1
0.975 0.075 0.1
0.975 0.05 0.1
0.975 0.025 0.1
0.95 0.475 0.1
0.95 0.45 0.1
0.95 0.425 0.1
0.95 0.4 0.1
0.95 0.375 0.1
0.95 0.35 0.1
0.95 0.325 0.1
0.95 0.3 0.1
0.95 0.275 0.1
0.95 0.25 0.1
0.95 0.225 0.1
0.95 0.2 0.1
0.95 0.175 0.1
0.95 0.15 0.1
0.95 0.125 0.1
0.95 0.1 0.1
0.95 0.075 0.1
0.95 0.05 0.1
0.95 0.025 0.1
0.925 0.475 0.1
0.925 0.45 0.1
0.925 0.425 0.1
0.925 0.4 0.1
0.925 0.375 0.1
0.925 0.35 0.1
0.925 0.325 0.1
0.925 0.3 0.1
0.925 0.275 0.1
0.925 0.25 0.1
0.925 0.225 0.1
0.925 0.2 0.1
0.925 0.175 0.1
0.925 0.15 0.1
0.925 0.125 0.1
0.925 0.1 0.1
0.925 0.075 0.1
0.925 0.05 0.1
0.925 0.025 0.1
0.9 0.475 0.1
0.9 0.45 0.1
0.9 0.425 0.1
0.9 0.4 0.1
0.9 0.375 0.1
0.9 0.35 0.1
0.9 0.325 0.1
0.9 0.3 0.1
0.9 0.275 0.1
0.9 0.25 0.1
0.9 0.225 0.1
0.9 0.2 0.1
0.9 0.175 0.1
0.9 0.15 0.1
0.9 0.125 0.1
0.9 0.1 0.1
0.9 0.075 0.1
0.9 0.05 0.1
0.9 0.025 0.1
0.875 0.475 0.1
0.875 0.45 0.1
0.875 0.425 0.1
0.875 0.4 0.1
0.875 0.375 0.1
0.875 0.35 0.1
0.875 0.325 0.1
0.875 0.3 0.1
0.875 0.275 0.1
0.875 0.25 0.1
0.875 0.225 0.1
0.875 0.2 0.1
0.875 0.175 0.1
0.875 0.15 0.1
0.875 0.125 0.1
0.875 0.1 0.1
0.875 0.075 0.1
0.875 0.05 0.1
0.875 0.025 0.1
0.85 0.475 0.1
0.85 0.45 0.1
0.85 0.425 0.1
0.85 0.4 0.1
0.85 0.375 0.1
0.85 0.35 0.1
0.85 0.325 0.1
0.85 0.3 0.1
0.85 0.275 0.1
0.85 0.25 0.1
0.85 0.225 0.1
0.85 0.2 0.1
0.85 0.175 0.1
0.85 0.15 0.1
0.85 0.125 0.1
0.85 0.1 0.1
0.85 0.075 0.1
0.85 0.05 0.1
0.85 0.025 0.1
0.825 0.475 0.1
0.825 0.45 0.1
0.825 0.425 0.1
0.825 0.4 0.1
0.825 0.375 0.1
0.825 0.35 0.1
0.825 0.325 0.1
0.825 0.3 0.1
0.825 0.275 0.1
0.825 0.25 0.1
0.825 0.225 0.1
0.825 0.2 0.1
0.825 0.175 0.1
0.825 0.15 0.1
0.825 0.125 0.1
0.825 0.1 0.1
0.825 0.075 0.1
0.825 0.05 0.1
0.825 0.025 0.1
0.8 0.475 0.1
0.8 0.45 0.1
0.8 0.425 0.1
0.8 0.4 0.1
0.8 0.375 0.1
0.8 0.35 0.1
0.8 0.325 0.1
0.8 0.3 0.1
0.8 0.275 0.1
0.8 0.25 0.1
0.8 0.225 0.1
0.8 0.2 0.1
0.8 0.175 0.1
0.8 0.15 0.1
0.8 0.125 0.1
0.8 0.1 0.1
0.8 0.075 0.1
0.8 0.05 0.1
0.8 0.025 0.1
0.775 0.475 0.1
0.775 0.45 0.1
0.775 0.425 0.1
0.775 0.4 0.1
0.775 0.375 0.1
0.775 0.35 0.1
0.775 0.325 0.1
0.775 0.3 0.1
0.775 0.275 0.1
0.775 0.25 0.1
0.775 0.225 0.1
0.775 0.2 0.1
0.775 0.175 0.1
0.775 0.15 0.1
0.775 0.125 0.1
0.775 0.1 0.1
0.775 0.075 0.1
0.775 0.05 0.1
0.775 0.025 0.1
0.75 0.475 0.1
0.75 0.45 0.1
0.75 0.425 0.1
0.75 0.4 0.1
0.75 0.375 0.1
0.75 0.35 0.1
0.75 0.325 0.1
0.75 0.3 0.1
0.75 0.275 0.1
0.75 0.25 0.1
0.75 0.225 0.1
0.75 0.2 0.1
0.75 0.175 0.1
0.75 0.15 0.1
0.75 0.125 0.1
0.75 0.1 0.1
0.75 0.075 0.1
0.75 0.05 0.1
0.75 0.025 0.1
0.725 0.475 0.1
0.725 0.45 0.1
0.725 0.425 0.1
0.725 0.4 0.1
0.725 0.375 0.1
0.725 0.35 0.1
0.725 0.325 0.1
0.725 0.3 0.1
0.725 0.275 0.1
0.725 0.25 0.1
0.725 0.225 0.1
0.725 0.2 0.1
0.725 0.175 0.1
0.725 0.15 0.1
0.725 0.125 0.1
0.725 0.1 0.1
0.725 0.075 0.1
0.725 0.05 0.1
0.725 0.025 0.1
0.7 0.475 0.1
0.7 0.45 0.1
0.7 0.425 0.1
0.7 0.4 0.1
0.7 0.375 0.1
0.7 0.35 0.1
0.7 0.325 0.1
0.7 0.3 0.1
0.7 0.275 0.1
0.7 0.25 0.1
0.7 0.225 0.1
0.7 0.2 0.1
0.7 0.175 0.1
0.7 0.15 0.1
0.7 0.125 0.1
0.7 0.1 0.1
0.7 0.075 0.1
0.7 0.05 0.1
0.7 0.025 0.1
0.675 0.475 0.1
0.675 0.45 0.1
0.675 0.425 0.1
0.675 0.4 0.1
0.675 0.375 0.1
0.675 0.35 0.1
0.675 0.325 0.1
0.675 0.3 0.1
0.675 0.275 0.1
0.675 0.25 0.1
0.675 0.225 0.1
0.675 0.2 0.1
0.675 0.175 0.1
0.675 0.15 0.1
0.675 0.125 0.1
0.675 0.1 0.1
0.675 0.075 0.1
0.675 0.05 0.1
0.675 0.025 0.1
0.65 0.475 0.1
0.65 0.45 0.1
0.65 0.425 0.1
0.65 0.4 0.1
0.65 0.375 0.1
0.65 0.35 0.1
0.65 0.325 0.1
0.65 0.3 0.1
0.65 0.275 0.1
0.65 0.25 0.1
0.65 0.225 0.1
0.65 0.2 0.1
0.65 0.175 0.1
0.65 0.15 0.1
0.65 0.125 0.1
0.65 0.1 0.1
0.65 0.075 0.1
0.65 0.05 0.1
0.65 0.025 0.1
0.625 0.475 0.1
0.625 0.45 0.1
0.625 0.425 0.1
0.625 0.4 0.1
0.625 0.375 0.1
0.625 0.35 0.1
0.625 0.325 0.1
0.625 0.3 0.1
0.625 0.275 0.1
0.625 0.25 0.1
0.625 0.225 0.1
0.625 0.2 0.1
0.625 0.175 0.1
0.625 0.15 0.1
0.625 0.125 0.1
0.625 0.1 0.1
0.625 0.075 0.1
0.625 0.05 0.1
0.625 0.025 0.1
0.6 0.475 0.1
0.6 0.45 0.1
0.6 0.425 0.1
0.6 0.4 0.1
0.6 0.375 0.1
0.6 0.35 0.1
0.6 0.325 0.1
0.6 0.3 0.1
0.6 0.275 0.1
0.6 0.25 0.1
0.6 0.225 0.1
0.6 0.2 0.1
0.6 0.175 0.1
0.6 0.15 0.1
0.6 0.125 0.1
0.6 0.1 0.1
0.6 0.075 0.1
0.6 0.05 0.1
0.6 0.025 0.1
0.575 0.475 0.1
0.575 0.45 0.1
0.575 0.425 0.1
0.575 0.4 0.1
0.575 0.375 0.1
0.575 0.35 0.1
0.575 0.325 0.1
0.575 0.3 0.1
0.575 0.275 0.1
0.575 0.25 0.1
0.575 0.225 0.1
0.575 0.2 0.1
0.575 0.175 0.1
0.575 0.15 0.1
0.575 0.125 0.1
0.575 0.1 0.1
0.575 0.075 0.1
0.575 0.05 0.1
0.575 0.025 0.1
0.55 0.475 0.1
0.55 0.45 0.1
0.55 0.425 0.1
0.55 0.4 0.1
0.55 0.375 0.1
0.55 0.35 0.1
0.55 0.325 0.1
0.55 0.3 0.1
0.55 0.275 0.1
0.55 0.25 0.1
0.55 0.225 0.1
0.55 0.2 0.1
0.55 0.175 0.1
0.55 0.15 0.1
0.55 0.125 0.1
0.55 0.1 0.1
0.55 0.075 0.1
0.55 0.05 0.1
0.55 0.025 0.1
0.525 0.475 0.1
0.525 0.45 0.1
0.525 0.425 0.1
0.525 0.4 0.1
0.525 0.375 0.1
0.525 0.35 0.1
0.525 0.325 0.1
0.525 0.3 0.1
0.525 0.275 0.1
0.525 0.25 0.1
0.525 0.225 0.1
0.525 0.2 0.1
0.525 0.175 0.1
0.525 0.15 0.1
0.525 0.125 0.1
0.525 0.1 0.1
0.525 0.075 0.1
0.525 0.05 0.1
0.525 0.025 0.1
0.5 0.475 0.1
0.5 0.45 0.1
0.5 0.425 0.1
0.5 0.4 0.1
0.5 0.375 0.1
0.5 0.35 0.1
0.5 0.325 0.1
0.5 0.3 0.1
0.5 0.275 0.1
0.5 0.25 0.1
0.5 0.225 0.1
0.5 0.2 0.1
0.5 0.175 0.1
0.5 0.15 0.1
0.5 0.125 0.1
0.5 0.1 0.1
0.5 0.075 0.1
0.5 0.05 0.1
0.5 0.025 0.1
0.475 0.475 0.1
0.475 0.45 0.1
0.475 0.425 0.1
0.475 0.4 0.1
0.475 0.375 0.1
0.475 0.35 0.1
0.475 0.325 0.1
0.475 0.3 0.1
0.475 0.275 0.1
0.475 0.25 0.1
0.475 0.225 0.1
0.475 0.2 0.1
0.475 0.175 0.1
0.475 0.15 0.1
0.475 0.125 0.1
0.475 0.1 0.1
0.475 0.075 0.1
0.475 0.05 0.1
0.475 0.025 0.1
0.45 0.475 0.1
0.45 0.45 0.1
0.45 0.425 0.1
0.45 0.4 0.1
0.45 0.375 0.1
0.45 0.35 0.1
0.45 0.325 0.1
0.45 0.3 0.1
0.45 0.275 0.1
0.45 0.25 0.1
0.45 0.225 0.1
0.45 0.2 0.1
0.45 0.175 0.1
0.45 0.15 0.1
0.45 0.125 0.1
0.45 0.1 0.1
0.45 0.075 0.1
0.45 0.05 0.1
0.45 0.025 0.1
0.425 0.475 0.1
0.425 0.45 0.1
0.425 0.425 0.1
0.425 0.4 0.1
0.425 0.375 0.1
0.425 0.35 0.1
0.425 0.325 0.1
0.425 0.3 0.1
0.425 0.275 0.1
0.425 0.25 0.1
0.425 0.225 0.1
0.425 0.2 0.1
0.425 0.175 0.1
0.425 0.15 0.1
0.425 0.125 0.1
0.425 0.1 0.1
0.425 0.075 0.1
0.425 0.05 0.1
0.425 0.025 0.1
0.4 0.475 0.1
0.4 0.45 0.1
0.4 0.425 0.1
0.4 0.4 0.1
0.4 0.375 0.1
0.4 0.35 0.1
0.4 0.325 0.1
0.4 0.3 0.1
0.4 0.275 0.1
0.4 0.25 0.1
0.4 0.225 0.1
0.4 0.2 0.1
0.4 0.175 0.1
0.4 0.15 0.1
0.4 0.125 0.1
0.4 0.1 0.1
0.4 0.075 0.1
0.4 0.05 0.1
0.4 0.025 0.1
0.375 0.475 0.1
0.375 0.45 0.1
0.375 0.425 0.1
0.375 0.4 0.1
0.375 0.375 0.1
[...]
    <PointData>
      <DataArray type="Float64" NumberOfComponents="3" Name="Velocity" format="ascii">
0 0 0
0 0 0
0 0 0
0 0 0
0 0 0
0 0 0
0 0 0
0 0 0
0 0 0
0 0 0
0 0 0
0 0 0
0 0 0
0 0 0
0 0 0
0 0 0
0 0 0
0 0 0
0 0 0
0 0 0
0 0 0
0 0 0
0 0 0
0 0 0
0 0 0
0 0 0
0 0 0
0 0 0
0 0 0
0 0 0
0 0 0
0 0 0
0 0 0
0 0 0
0 0 0
0 0 0
0 0 0
0 0 0
0 0 0
0 0 0
0 0 0
0 0 0
0 0 0
0 0 0
0 0 0
0 0 0
0 0 0
0 0 0
0 0 0
0 0 0
0 0 0
0 0 0
0 0 0
0 0 0
0 0 0
0 0 0
0 0 0
0 0 0
0 0 0
0 0 0
0 0 0
0 0 0
0 0 0
0 0 0
0 0 0
0 0 0
0 0 0
0 0 0
0 0 0
0 0 0
0 0 0
0 0 0
0 0 0
0 0 0
0 0 0
0 0 0
0 0 0
0 0 0
0 0 0
0 0 0
0 0 0
0 0 0
0 0 0
0 0 0
0 0 0
0 0 0
0 0 0
0 0 0
0 0 0
0 0 0
0 0 0
0 0 0
0 0 0
0 0 0
0 0 0
0 0 0
0 0 0
0 0 0
0 0 0
0 0 0
0 0 0
0 0 0
0 0 0
0 0 0
0 0 0
0 0 0
0 0 0
0 0 0
0 0 0
0 0 0
0 0 0
0 0 0
0 0 0
0 0 0
0 0 0
0 0 0
0 0 0
0 0 0
0 0 0
0 0 0
0 0 0
0 0 0
-0.00283112 -0.0421953 0
-0.00996429 -0.0774608 0
-0.0204357 -0.106671 0
-0.0325669 -0.130424 0
-0.0464218 -0.148907 0
-0.06158 -0.161724 0
-0.07669 -0.169491 0
-0.0915768 -0.172344 0
-0.10591 -0.17071 0
-0.119083 -0.165427 0
-0.131018 -0.156542 0
-0.141545 -0.144694 0
-0.150542 -0.130212 0
-0.158217 -0.113541 0
-0.164488 -0.095482 0
-0.169263 -0.0760878 0
-0.172701 -0.0558585 0
-0.17471 -0.035197 0
-0.175409 -0.0143154 0
-0.174877 0.00622234 0
-0.173127 0.0264373 0
-0.170237 0.0462803 0
-0.166181 0.0653357 0
-0.160894 0.0835392 0
-0.154448 0.100578 0
-0.146843 0.116171 0
-0.13814 0.130229 0
-0.128404 0.142186 0
-0.117588 0.151805 0
-0.10585 0.158778 0
-0.0933835 0.162643 0
-0.0801975 0.163314 0
-0.066713 0.16018 0
-0.0534428 0.152675 0
-0.0408106 0.140088 0
-0.0288471 0.122023 0
-0.0181527 0.0987563 0
-0.00920676 0.0702475 0
-0.00312537 0.0363256 0
-0.00124283 -0.0205943 0
-0.00592201 -0.0606177 0
-0.0149869 -0.0928081 0
-0.0263548 -0.119273 0
-0.039352 -0.140405 0
-0.0540336 -0.156114 0
-0.0692372 -0.166375 0
-0.0842592 -0.171692 0
-0.0989429 -0.172215 0
-0.112716 -0.168724 0
-0.125266 -0.161567 0
-0.136511 -0.151109 0
-0.146269 -0.137928 0
-0.154582 -0.122246 0
-0.161574 -0.104822 0
-0.167084 -0.0860872 0
-0.17119 -0.0661881 0
-0.173919 -0.0457455 0
-0.175256 -0.0249003 0
-0.175321 -0.00408326 0
-0.174164 0.0163049 0
-0.171833 0.0364011 0
-0.168364 0.0558906 0
-0.163683 0.0745505 0
-0.157802 0.0922474 0
-0.150771 0.108582 0
-0.142595 0.123474 0
-0.133372 0.136536 0
-0.123083 0.147349 0
-0.111771 0.155721 0
-0.0996719 0.161147 0
-0.0868236 0.163434 0
-0.0734259 0.162293 0
-0.0600072 0.157037 0
-0.047039 0.147115 0
-0.0346783 0.131764 0
-0.0232839 0.111074 0
-0.0133681 0.0852162 0
-0.0056933 0.0540572 0
-0.00294231 0.0170428 0
0 0 0
0 0 0
0 0 0
0 0 0
0 0 0
0 0 0
0 0 0
0 0 0
0 0 0
0 0 0
0 0 0
0 0 0
0 0 0
0 0 0
0 0 0
0 0 0
0 0 0
0 0 0
0 0 0
0 0 0
0 0 0
0 0 0
0 0 0
0 0 0
0 0 0
0 0 0
0 0 0
0 0 0
0 0 0
0 0 0
0 0 0
0 0 0
0 0 0
0 0 0
0 0 0
0 0 0
0 0 0
0 0 0
0 0 0
-0.00447014 -0.036179 0
-0.00439951 -0.031212 0
-0.00378736 -0.0262739 0
-0.0024982 -0.0223023 0
-0.00187981 -0.0194049 0
-0.00163427 -0.0167556 0
-0.00148627 -0.0142816 0
-0.00136121 -0.0119884 0
-0.00124114 -0.00988048 0
-0.00112142 -0.00795972 0
-0.00100006 -0.00622804 0
-0.000875358 -0.004689 0
-0.0007456 -0.00334874 0
-0.000609294 -0.00221618 0
-0.000465974 -0.00130252 0
-0.000317762 -0.000619933 0
-0.000170749 -0.000179264 0
-2.89065e-05 2.54569e-05 0
6.03337e-05 5.25265e-05 0
-0.0107789 -0.0666997 0
-0.0107078 -0.0580146 0
-0.009653 -0.0504102 0
-0.00759556 -0.0437941 0
-0.00629123 -0.0380787 0
-0.0055938 -0.0328117 0
-0.00509291 -0.0279959 0
-0.00465572 -0.0235914 0
-0.00424125 -0.0195718 0
-0.00383431 -0.0159219 0
-0.00342664 -0.0126351 0
-0.00301165 -0.00971136 0
-0.00258337 -0.00715651 0
-0.00213693 -0.00498093 0
-0.00167032 -0.00319795 0
-0.00118774 -0.00182045 0
-0.000705338 -0.000853905 0
-0.000264575 -0.000280176 0
3.2575e-05 -3.70834e-05 0
-0.0197616 -0.0928267 0
-0.0190325 -0.0814769 0
-0.0174314 -0.0716185 0
-0.0149911 -0.0629108 0
-0.0131132 -0.0549815 0
-0.0117837 -0.0475144 0
-0.0107195 -0.0406641 0
-0.00977934 -0.0344103 0
-0.00889892 -0.0287134 0
-0.00804569 -0.0235444 0
-0.0071997 -0.0188867 0
-0.00634596 -0.0147343 0
-0.00547209 -0.0110889 0
-0.00456885 -0.00795799 0
-0.00363285 -0.00535208 0
-0.00267217 -0.00328062 0
-0.00171678 -0.00174516 0
-0.000837642 -0.000728917 0
-0.000177965 -0.000184612 0
-0.0309896 -0.114316 0
-0.0293726 -0.101066 0
-0.0270957 -0.0894109 0
-0.0242577 -0.0789859 0
-0.0218782 -0.0694154 0
-0.0198418 -0.0602935 0
-0.0180849 -0.0518353 0
-0.0165007 -0.044069 0
-0.0150163 -0.0369723 0
-0.0135848 -0.0305189 0
-0.012174 -0.0246896 0
-0.0107596 -0.0194746 0
-0.00932195 -0.0148716 0
-0.00784709 -0.0108842 0
-0.00633012 -0.00751958 0
-0.00478239 -0.00478481 0
-0.00324377 -0.00268257 0
-0.00180252 -0.00120542 0
-0.000625023 -0.000328703 0
-0.0438684 -0.131061 0
-0.0412941 -0.116547 0
-0.0383522 -0.103628 0
-0.0350142 -0.0918794 0
-0.0320513 -0.0811387 0
-0.0293092 -0.0708422 0
-0.0268189 -0.0611983 0
-0.0245168 -0.0522746 0
-0.0223394 -0.0440766 0
-0.0202364 -0.0365911 0
-0.0181682 -0.029804 0
-0.0161029 -0.0237054 0
-0.0140145 -0.0182916 0
-0.011884 -0.013564 0
-0.00970425 -0.00952804 0
-0.00748675 -0.00619168 0
-0.00527456 -0.00356364 0
-0.00316039 -0.00165221 0
-0.00131167 -0.000464318 0
-0.0577623 -0.143101 0
-0.0542323 -0.127932 0
-0.0507122 -0.11429 0
-0.046864 -0.101716 0
-0.0432134 -0.0901611 0
-0.0397783 -0.0790482 0
-0.0365551 -0.0685804 0
-0.0335088 -0.0588338 0
-0.030594 -0.0498307 0
-0.0277655 -0.0415711 0
-0.0249822 -0.0340486 0
-0.0222077 -0.0272567 0
-0.0194111 -0.0211929 0
-0.0165687 -0.0158587 0
-0.0136689 -0.0112608 0
-0.0107198 -0.00741119 0
-0.00775972 -0.00432826 0
-0.00487312 -0.00203925 0
-0.00220903 -0.000582548 0
-0.0720578 -0.150597 0
-0.067673 -0.135271 0
-0.0636504 -0.121372 0
-0.0593663 -0.108459 0
-0.0550336 -0.0964593 0
-0.0509064 -0.0848623 0
-0.0469592 -0.0738958 0
-0.0431696 -0.0636357 0
-0.0395062 -0.0541116 0
-0.0359315 -0.0453327 0
-0.0324068 -0.0372999 0
-0.0288939 -0.0300119 0
-0.0253582 -0.0234692 0
-0.0217713 -0.0176763 0
-0.0181156 -0.0126432 0
-0.0143912 -0.0083884 0
-0.010625 -0.00494182 0
-0.0068823 -0.00234959 0
-0.00328051 -0.000677508 0
-0.0862528 -0.15367 0
-0.0811493 -0.138638 0
-0.0767164 -0.124901 0
-0.0720771 -0.112048 0
-0.0671466 -0.0999975 0
-0.0623614 -0.0882667 0
-0.0577186 -0.0771159 0
-0.0532084 -0.0666345 0
-0.0488108 -0.0568594 0
-0.0444966 -0.0478076 0
-0.0402305 -0.0394868 0
-0.0359748 -0.0319017 0
-0.0316922 -0.0250572 0
-0.0273491 -0.0189621 0
-0.0229204 -0.013632 0
-0.0183944 -0.00909288 0
-0.0137809 -0.00538618 0
-0.00911869 -0.00257486 0
-0.00448478 -0.000746628 0
-0.0999041 -0.15279 0
-0.0942507 -0.138396 0
-0.0895361 -0.125144 0
-0.0846291 -0.112656 0
-0.079199 -0.100863 0
-0.0738249 -0.08931 0
-0.0685389 -0.0782691 0
-0.0633516 -0.0678398 0
-0.0582557 -0.0580678 0
-0.0532302 -0.0489775 0
-0.0482447 -0.0405838 0
-0.0432627 -0.0328973 0
-0.0382447 -0.0259286 0
-0.033152 -0.0196918 0
-0.0279501 -0.0142083 0
-0.0226133 -0.00951188 0
-0.0171299 -0.00565442 0
-0.0115077 -0.00271232 0
-0.00577835 -0.000789243 0
-0.112721 -0.148426 0
-0.106694 -0.134876 0
-0.101831 -0.122349 0
-0.0967498 -0.110472 0
-0.0908972 -0.0992061 0
-0.0850094 -0.0881066 0
-0.0791493 -0.0774399 0
-0.073346 -0.0673119 0
-0.0676049 -0.0577768 0
-0.061914 -0.0488668 0
-0.0562483 -0.0406036 0
-0.0505733 -0.0330041 0
-0.0448479 -0.0260845 0
-0.0390278 -0.0198645 0
-0.0330684 -0.0143713 0
-0.0269282 -0.00964565 0
-0.020572 -0.00574758 0
-0.0139736 -0.00276308 0
-0.00711772 -0.000805844 0
-0.124489 -0.140821 0
-0.118247 -0.128317 0
-0.11335 -0.116733 0
-0.10817 -0.105721 0
-0.101973 -0.095234 0
-0.0956603 -0.0848256 0
-0.0893086 -0.0747609 0
-0.082963 -0.0651535 0
-0.0766425 -0.0560651 0
-0.070345 -0.0475347 0
-0.0640516 -0.0395904 0
-0.0577303 -0.0322548 0
-0.0513389 -0.0255492 0
-0.0448274 -0.0194983 0
-0.0381409 -0.0141347 0
-0.031221 -0.00950422 0
-0.0240082 -0.0056725 0
-0.016442 -0.00273094 0
-0.00846086 -0.000797682 0
-0.135026 -0.130542 0
-0.128727 -0.119212 0
-0.123888 -0.108721 0
-0.118664 -0.0987504 0
-0.112214 -0.0892111 0
-0.105569 -0.0796751 0
-0.0988109 -0.0703999 0
-0.0920024 -0.0615001 0
-0.0851757 -0.0530415 0
-0.0783388 -0.0450683 0
-0.0714796 -0.0376133 0
-0.0645691 -0.0307036 0
-0.0575639 -0.024365 0
-0.0504089 -0.018626 0
-0.0430386 -0.0135229 0
-0.0353783 -0.0091049 0
-0.0273442 -0.00544024 0
-0.0188428 -0.00262163 0
-0.0097683 -0.000766551 0
-0.144163 -0.117884 0
-0.13799 -0.107924 0
-0.133299 -0.0986543 0
-0.128083 -0.0898499 0
-0.121466 -0.0813957 0
-0.114568 -0.0728784 0
-0.107485 -0.0645451 0
-0.100293 -0.0565087 0
-0.0930359 -0.0488366 0
-0.0857317 -0.0415752 0
-0.0783749 -0.0347602 0
-0.0709395 -0.0284216 0
-0.0633815 -0.0225882 0
-0.0556408 -0.017291 0
-0.047642 -0.0125683 0
-0.0392947 -0.00847035 0
-0.0304925 -0.00506497 0
-0.0211109 -0.00244231 0
-0.0110039 -0.000714631 0
-0.151829 -0.103146 0
-0.145876 -0.0947157 0
-0.14146 -0.0868398 0
-0.136302 -0.0793139 0
-0.129595 -0.0720492 0
-0.122522 -0.0646645 0
-0.115191 -0.0573948 0
-0.107691 -0.0503497 0
-0.100079 -0.043595 0
-0.0923813 -0.037177 0
-0.0845986 -0.031132 0
-0.0767079 -0.0254914 0
-0.0686647 -0.020285 0
-0.0604045 -0.0155449 0
-0.0518428 -0.0113092 0
-0.042875 -0.00762713 0
-0.0333742 -0.00456307 0
-0.0231883 -0.00220113 0
-0.0121356 -0.000644374 0
-0.158071 -0.0869322 0
-0.152345 -0.0800541 0
-0.148266 -0.0736437 0
-0.143246 -0.0674547 0
-0.136512 -0.061434 0
-0.129329 -0.0552623 0
-0.121817 -0.0491512 0
-0.11408 -0.0432001 0
-0.106185 -0.03747 0
-0.0981671 -0.0320046 0
-0.0900317 -0.026839 0
-0.0817585 -0.0220039 0
-0.0733028 -0.0175287 0
-0.0645959 -0.0134445 0
-0.0555458 -0.00978793 0
-0.0460354 -0.00660435 0
-0.0359201 -0.00395238 0
-0.0250241 -0.0019069 0
-0.0131353 -0.00055841 0
-0.162941 -0.0695024 0
-0.157444 -0.0642361 0
-0.153689 -0.0593046 0
-0.148877 -0.0545024 0
-0.142155 -0.0497859 0
-0.134907 -0.0448939 0
-0.127273 -0.0400159 0
-0.119364 -0.0352397 0
-0.111256 -0.0306194 0
-0.10299 -0.0261942 0
-0.0945752 -0.0219965 0
-0.0859945 -0.0180548 0
-0.0772023 -0.0143965 0
-0.0681272 -0.0110504 0
-0.0586705 -0.00804912 0
-0.048705 -0.00543279 0
-0.0380718 -0.00325164 0
-0.0265757 -0.00156881 0
-0.0139796 -0.000459469 0
-0.166495 -0.0512275 0
-0.161233 -0.047593 0
-0.157759 -0.0441242 0
-0.153141 -0.0407171 0
-0.146461 -0.0373433 0
-0.139194 -0.0337802 0
-0.13149 -0.0301904 0
-0.12347 -0.0266491 0
-0.115215 -0.0232025 0
-0.10677 -0.0198843 0
-0.0981501 -0.0167227 0
-0.0893376 -0.0137427 0
-0.0802878 -0.0109684 0
-0.0709268 -0.00842461 0
-0.0611513 -0.00613891 0
-0.0508263 -0.00414402 0
-0.039782 -0.00248005 0
-0.0278084 -0.00119625 0
-0.0146499 -0.00035032 0
-0.168786 -0.0324718 0
-0.16376 -0.0304199 0
-0.160502 -0.0283935 0
-0.15603 -0.0263746 0
-0.149401 -0.024351 0
-0.142147 -0.022142 0
-0.13442 -0.0198746 0
-0.126345 -0.017608 0
-0.118006 -0.0153786 0
-0.109451 -0.0132138 0
-0.100697 -0.0111364 0
-0.0917292 -0.00916691 0
-0.0825019 -0.00732495 0
-0.0729403 -0.0056302 0
-0.0629382 -0.00410382 0
-0.0523554 -0.0027699 0
-0.0410146 -0.00165688 0
-0.0286961 -0.000798599 0
-0.0151319 -0.000233724 0
-0.169846 -0.0134154 0
-0.165018 -0.012891 0
-0.161893 -0.0123111 0
-0.157523 -0.0116981 0
-0.150954 -0.011038 0
-0.143744 -0.0101941 0
-0.136036 -0.00926479 0
-0.127957 -0.00829299 0
-0.119593 -0.00730495 0
-0.110994 -0.00632026 0
-0.102177 -0.00535568 0
-0.0931294 -0.00442636 0
-0.0838056 -0.0035465 0
-0.0741307 -0.00272984 0
-0.0639969 -0.0019902 0
-0.053262 -0.00134208 0
-0.041745 -0.000801251 0
-0.0292212 -0.000385136 0
-0.0154161 -0.000112401 0
-0.16964 0.00557215 0
-0.164947 0.00465771 0
-0.161894 0.00382118 0
-0.157608 0.00305419 0
-0.151118 0.00236991 0
-0.143977 0.0018564 0
-0.136327 0.0014492 0
-0.128293 0.00112341 0
-0.11996 0.000864412 0
-0.11138 0.000660961 0
-0.10257 0.000503022 0
-0.0935174 0.000381359 0
-0.0841782 0.000287622 0
-0.0744777 0.000214557 0
-0.064309 0.00015623 0
-0.05353 0.000108258 0
-0.04196 6.80441e-05 0
-0.0293742 3.50428e-05 0
-0.0154976 1.09928e-05 0
-0.168123 0.0243044 0
-0.163504 0.0219962 0
-0.160522 0.0197821 0
-0.156312 0.0176728 0
-0.149909 0.0156671 0
-0.142859 0.0138134 0
-0.135301 0.0120842 0
-0.127356 0.0104738 0
-0.11911 0.00897916 0
-0.11061 0.00759758 0
-0.101874 0.00632578 0
-0.092891 0.00516056 0
-0.0836166 0.0040996 0
-0.0739782 0.00314228 0
-0.0638712 0.00229068 0
-0.0531567 0.0015506 0
-0.0416576 0.000932648 0
-0.0291537 0.000453074 0
-0.0153758 0.000133875 0
-0.165281 0.0426573 0
-0.160694 0.0389909 0
-0.157785 0.0354204 0
-0.153644 0.0319745 0
-0.147343 0.0286574 0
-0.140408 0.0254853 0
-0.132977 0.0224611 0
-0.125168 0.0195943 0
-0.117061 0.0168924 0
-0.108702 0.0143604 0
-0.100108 0.0120012 0
-0.0912663 0.00981779 0
-0.0821357 0.00781346 0
-0.0726457 0.00599407 0
-0.0626958 0.00436944 0
-0.0521526 0.00295522 0
-0.0408464 0.00177469 0
-0.0285664 0.000860346 0
-0.0150545 0.000253744 0
-0.161178 0.0602708 0
-0.156603 0.0553175 0
-0.153715 0.0504548 0
-0.14963 0.0457131 0
-0.143449 0.0411259 0
-0.136659 0.0366772 0
-0.129394 0.0324019 0
-0.121767 0.0283241 0
-0.113852 0.0244605 0
-0.105693 0.0208231 0
-0.097306 0.0174209 0
-0.0886774 0.014262 0
-0.0797677 0.0113552 0
-0.0705101 0.00871225 0
-0.0608097 0.00635001 0
-0.0505414 0.00429318 0
-0.039546 0.00257682 0
-0.0276265 0.0012485 0
-0.0145414 0.000368171 0
-0.155861 0.0770095 0
-0.151296 0.0707739 0
-0.148371 0.0646476 0
-0.144328 0.0586566 0
-0.138281 0.0528568 0
-0.131666 0.0471938 0
-0.124607 0.0417303 0
-0.117208 0.0365047 0
-0.109538 0.0315427 0
-0.101639 0.0268626 0
-0.0935224 0.0224791 0
-0.0851758 0.0184048 0
-0.0765614 0.0146531 0
-0.0676169 0.0112409 0
-0.0582545 0.00819115 0
-0.0483593 0.00553644 0
-0.0377862 0.00332217 0
-0.0263557 0.00160942 0
-0.0138485 0.000474801 0
-0.149348 0.092614 0
-0.144797 0.0851137 0
-0.141803 0.0777496 0
-0.137802 0.0705751 0
-0.13191 0.0636408 0
-0.125503 0.0568443 0
-0.118688 0.0502737 0
-0.111564 0.0439813 0
-0.104193 0.0380017 0
-0.0966112 0.0323593 0
-0.0888279 0.0270734 0
-0.0808301 0.0221604 0
-0.0725822 0.0176376 0
-0.0640271 0.0135258 0
-0.0550856 0.00985293 0
-0.045655 0.0066578 0
-0.0356069 0.00399439 0
-0.0247832 0.00193521 0
-0.0129917 0.000571337 0
-0.141698 0.10681 0
-0.137145 0.0980784 0
-0.134084 0.0895283 0
-0.130149 0.0812572 0
-0.12443 0.0732812 0
-0.118257 0.0654456 0
-0.111728 0.0578644 0
-0.104926 0.0506034 0
-0.097907 0.0437044 0
-0.0906995 0.0371974 0
-0.0833101 0.0311048 0
-0.0757249 0.0254464 0
-0.0679108 0.020242 0
-0.0598163 0.015515 0
-0.0513718 0.0112969 0
-0.0424885 0.007631 0
-0.0330573 0.00457764 0
-0.022945 0.0022182 0
-0.0119906 0.000655534 0
-0.132934 0.119442 0
-0.128387 0.109495 0
-0.125297 0.0998247 0
-0.121453 0.0905265 0
-0.115934 0.0815899 0
-0.110033 0.0728188 0
-0.103832 0.0643395 0
-0.0974019 0.0562249 0
-0.0907872 0.0485225 0
-0.0840099 0.0412654 0
-0.0770727 0.0344789 0
-0.0699605 0.0281841 0
-0.0626427 0.0224023 0
-0.0550737 0.0171587 0
-0.0471944 0.0124862 0
-0.0389312 0.00843079 0
-0.030196 0.0050566 0
-0.0208836 0.00245092 0
-0.0108686 0.000725192 0
-0.123122 0.130084 0
-0.118626 0.119027 0
-0.115554 0.108355 0
-0.111813 0.0981405 0
-0.106534 0.0883637 0
-0.10095 0.0787852 0
-0.0951248 0.0695396 0
-0.0891163 0.0607055 0
-0.0829582 0.0523334 0
-0.0766652 0.0444583 0
-0.0702352 0.0371064 0
-0.063652 0.0302994 0
-0.0568872 0.024059 0
-0.0499015 0.0184102 0
-0.0426465 0.0133862 0
-0.0350646 0.00903321 0
-0.0270903 0.00541658 0
-0.0186484 0.00262614 0
-0.00965252 0.000778149 0
-0.112374 0.138506 0
-0.108009 0.126438 0
-0.104995 0.114882 0
-0.101376 0.103879 0
-0.0963776 0.0934067 0
-0.091153 0.0831711 0
-0.0857509 0.0733122 0
-0.0802134 0.0639121 0
-0.0745625 0.0550226 0
-0.0688044 0.0466785 0
-0.0629322 0.0389056 0
-0.0569283 0.0317251 0
-0.0507665 0.0251575 0
-0.0444135 0.0192269 0
-0.0378316 0.0139648 0
-0.0309796 0.00941595 0
-0.0238151 0.00564374 0
-0.0162945 0.00273693 0
-0.00837276 0.000812291 0
-0.100821 0.144454 0
-0.0966922 0.131491 0
-0.0937834 0.119193 0
-0.0903039 0.107556 0
-0.0856279 0.0965383 0
-0.0808076 0.085812 0
-0.0758761 0.0755141 0
-0.0708573 0.0657227 0
-0.0657602 0.056487 0
-0.0605825 0.0478398 0
-0.0553125 0.0398051 0
-0.0499311 0.0324024 0
-0.0444139 0.0256507 0
-0.0387337 0.0195716 0
-0.0328625 0.0141942 0
-0.0267754 0.00955912 0
-0.0204525 0.00572541 0
-0.0138823 0.00277674 0
-0.00706279 0.000825563 0
-0.0886811 0.147502 0
-0.0849089 0.13385 0
-0.0821388 0.121021 0
-0.0787965 0.108944 0
-0.0744749 0.097569 0
-0.0701061 0.0865516 0
-0.0656909 0.0760162 0
-0.061233 0.0660312 0
-0.0567293 0.0566396 0
-0.0521697 0.047871 0
-0.0475378 0.0397469 0
-0.042813 0.0322848 0
-0.0379726 0.0255012 0
-0.0329941 0.0194152 0
-0.0278592 0.0140517 0
-0.0225572 0.00944628 0
-0.01709 0.00565071 0
-0.0114769 0.00273969 0
-0.00575896 0.000816013 0
-0.0762185 0.147461 0
-0.0729313 0.133321 0
-0.0702983 0.120161 0
-0.0670804 0.107832 0
-0.0631512 0.0963248 0
-0.059275 0.0852555 0
-0.0554112 0.0747141 0
-0.0515456 0.0647548 0
-0.0476642 0.0554151 0
-0.0437495 0.0467209 0
-0.0397807 0.0386914 0
-0.0357356 0.0313414 0
-0.0315923 0.0246852 0
-0.0273328 0.0187388 0
-0.0229465 0.0135227 0
-0.018435 0.00906608 0
-0.0138193 0.00541149 0
-0.00914699 0.00262094 0
-0.00449999 0.000781868 0
-0.0637718 0.143956 0
-0.0610183 0.129616 0
-0.0584801 0.116359 0
-0.0554085 0.104038 0
-0.0519281 0.0926828 0
-0.0485687 0.0818342 0
-0.0452732 0.0715393 0
-0.0420157 0.0618421 0
-0.0387718 0.0527762 0
-0.0355157 0.0443641 0
-0.0322218 0.036622 0
-0.0288658 0.0295622 0
-0.0254269 0.0231965 0
-0.02189 0.017538 0
-0.0182504 0.0126033 0
-0.0145195 0.00841463 0
-0.0107333 0.00500384 0
-0.00696276 0.00241736 0
-0.00332615 0.000721679 0
-0.0517 0.136517 0
-0.0494236 0.122403 0
-0.0469453 0.109439 0
-0.0441031 0.097492 0
-0.0410975 0.0866063 0
-0.0382486 0.0762545 0
-0.0355201 0.066465 0
-0.032873 0.0572772 0
-0.0302678 0.0487185 0
-0.0276689 0.0408059 0
-0.0250457 0.0335508 0
-0.0223726 0.0269628 0
-0.0196296 0.0210515 0
-0.016804 0.0158279 0
-0.0138946 0.011305 0
-0.0109189 0.00749879 0
-0.00792277 0.00443037 0
-0.00499369 0.00212869 0
-0.00227809 0.000634602 0
-0.040218 0.124774 0
-0.0384528 0.111532 0
-0.0360464 0.0994265 0
-0.0334453 0.0882644 0
-0.030902 0.078112 0
-0.0285567 0.0685151 0
-0.0263941 0.0594972 0
-0.0243519 0.0510798 0
-0.0223726 0.0432747 0
-0.0204122 0.036088 0
-0.0184372 0.0295249 0
-0.0164223 0.0235914 0
-0.0143488 0.0182959 0
-0.0122059 0.0136483 0
-0.00999414 0.00965962 0
-0.00773293 0.00634104 0
-0.00547143 0.00370381 0
-0.0033046 0.0017596 0
-0.00139485 0.000520956 0
-0.0295358 0.108638 0
-0.0284072 0.0969165 0
-0.0261202 0.0861921 0
-0.0236564 0.0762504 0
-0.0215563 0.0671454 0
-0.0197381 0.0586116 0
-0.0181484 0.0506695 0
-0.0166959 0.0433097 0
-0.0153117 0.0365209 0
-0.0139493 0.0302956 0
-0.0125773 0.0246325 0
-0.0111735 0.0195351 0
-0.00972202 0.0150116 0
-0.00821367 0.0110721 0
-0.00664916 0.00772741 0
-0.00504579 0.00498625 0
-0.00344899 0.00285263 0
-0.00194984 0.00132315 0
-0.000710614 0.000383463 0
-0.0198115 0.088144 0
-0.0194032 0.0784901 0
-0.0173921 0.0695234 0
-0.0150469 0.0612344 0
-0.0133704 0.0536279 0
-0.0120997 0.0465697 0
-0.0110709 0.040067 0
-0.0101657 0.0340829 0
-0.00931574 0.0285876 0
-0.00848203 0.0235652 0
-0.00764034 0.019011 0
-0.00677424 0.0149281 0
-0.00587204 0.0113253 0
-0.00492661 0.00821419 0
-0.00393774 0.00560676 0
-0.00291768 0.00351175 0
-0.00190159 0.00192987 0
-0.000964546 0.000847877 0
-0.000247337 0.00022887 0
-0.011488 0.0633994 0
-0.0115883 0.0564104 0
-0.0100115 0.0495196 0
-0.00797716 0.0432597 0
-0.00675757 0.0376492 0
-0.00601872 0.0325387 0
-0.00548618 0.0278712 0
-0.00503712 0.0235926 0
-0.00461995 0.019671 0
-0.00421013 0.0160923 0
-0.00379374 0.0128536 0
-0.0033614 0.00995926 0
-0.00290612 0.00741863 0
-0.0024231 0.00524405 0
-0.00191123 0.00344863 0
-0.00137657 0.00204252 0
-0.000840039 0.0010272 0
-0.000351895 0.000387868 0
-9.37463e-06 8.1215e-05 0
-0.00526648 0.0346451 0
-0.00512051 0.030839 0
-0.00408528 0.026408 0
-0.00281589 0.0226433 0
-0.00217142 0.0195616 0
-0.00189076 0.0168528 0
-0.00171836 0.0143855 0