<?xml version="1.0"?>
<VTKFile type="UnstructuredGrid">
  <UnstructuredGrid>
  <Piece NumberOfPoints="3321"  NumberOfCells="1600">
    <Points>
      <DataArray type="Float64" NumberOfComponents="3" format="ascii">
0 0 0.1
1 0 0.1
1 0.5 0.1
0 0.5 0.1
0.025 0 0.1
0.05 0 0.1
0.075 0 0.1
0.1 0 0.1
0.125 0 0.1
0.15 0 0.1
0.175 0 0.1
0.2 0 0.1
0.225 0 0.1
0.25 0 0.1
0.275 0 0.1
0.3 0 0.1
0.325 0 0.1
0.35 0 0.1
0.375 0 0.1
0.4 0 0.1
0.425 0 0.1
0.45 0 0.1
0.475 0 0.1
0.5 0 0.1
0.525 0 0.1
0.55 0 0.1
0.575 0 0.1
0.6 0 0.1
0.625 0 0.1
0.65 0 0.1
0.675 0 0.1
0.7 0 0.1
0.725 0 0.1
0.75 0 0.1
0.775 0 0.1
0.8 0 0.1
0.825 0 0.1
0.85 0 0.1
0.875 0 0.1
0.9 0 0.1
0.925 0 0.1
0.95 0 0.1
0.975 0 0.1
0.0125 0 0.1
0.0375 0 0.1
0.0625 0 0.1
0.0875 0 0.1
0.1125 0 0.1
0.1375 0 0.1
0.1625 0 0.1
0.1875 0 0.1
0.2125 0 0.1
0.2375 0 0.1
0.2625 0 0.1
0.2875 0 0.1
0.3125 0 0.1
0.3375 0 0.1
0.3625 0 0.1
0.3875 0 0.1
0.4125 0 0.1
0.4375 0 0.1
0.4625 0 0.1
0.4875 0 0.1
0.5125 0 0.1
0.5375 0 0.1
0.5625 0 0.1
0.5875 0 0.1
0.6125 0 0.1
0.6375 0 0.1
0.6625 0 0.1
0.6875 0 0.1
0.7125 0 0.1
0.7375 0 0.1
0.7625 0 0.1
0.7875 0 0.1
0.8125 0 0.1
0.8375 0 0.1
0.8625 0 0.1
0.8875 0 0.1
0.9125 0 0.1
0.9375 0 0.1
0.9625 0 0.1
0.9875 0 0.1
1 0.025 0.1
1 0.05 0.1
1 0.075 0.1
1 0.1 0.1
1 0.125 0.1
1 0.15 0.1
1 0.175 0.1
1 0.2 0.1
1 0.225 0.1
1 0.25 0.1
1 0.275 0.1
1 0.3 0.1
1 0.325 0.1
1 0.35 0.1
1 0.375 0.1
1 0.4 0.1
1 0.425 0.1
1 0.45 0.1
1 0.475 0.1
1 0.0125 0.1
1 0.0375 0.1
1 0.0625 0.1
1 0.0875 0.1
1 0.1125 0.1
1 0.1375 0.1
1 0.1625 0.1
1 0.1875 0.1
1 0.2125 0.1
1 0.2375 0.1
1 0.2625 0.1
1 0.2875 0.1
1 0.3125 0.1
1 0.3375 0.1
1 0.3625 0.1
1 0.3875 0.1
1 0.4125 0.1
1 0.4375 0.1
1 0.4625 0.1
1 0.4875 0.1
0.975 0.5 0.1
0.95 0.5 0.1
0.925 0.5 0.1
0.9 0.5 0.1
0.875 0.5 0.1
0.85 0.5 0.1
0.825 0.5 0.1
0.8 0.5 0.1
0.775 0.5 0.1
0.75 0.5 0.1
0.725 0.5 0.1
0.7 0.5 0.1
0.675 0.5 0.1
0.65 0.5 0.1
0.625 0.5 0.1
0.6 0.5 0.1
0.575 0.5 0.1
0.55 0.5 0.1
0.525 0.5 0.1
0.5 0.5 0.1
0.475 0.5 0.1
0.45 0.5 0.1
0.425 0.5 0.1
0.4 0.5 0.1
0.375 0.5 0.1
0.35 0.5 0.1
0.325 0.5 0.1
0.3 0.5 0.1
0.275 0.5 0.1
0.25 0.5 0.1
0.225 0.5 0.1
0.2 0.5 0.1
0.175 0.5 0.1
0.15 0.5 0.1
0.125 0.5 0.1
0.1 0.5 0.1
0.075 0.5 0.1
0.05 0.5 0.1
0.025 0.5 0.1
0.9875 0.5 0.1
0.9625 0.5 0.1
0.9375 0.5 0.1
0.9125 0.5 0.1
0.8875 0.5 0.1
0.8625 0.5 0.1
0.8375 0.5 0.1
0.8125 0.5 0.1
0.7875 0.5 0.1
0.7625 0.5 0.1
0.7375 0.5 0.1
0.7125 0.5 0.1
0.6875 0.5 0.1
0.6625 0.5 0.1
0.6375 0.5 0.1
0.6125 0.5 0.1
0.5875 0.5 0.1
0.5625 0.5 0.1
0.5375 0.5 0.1
0.5125 0.5 0.1
0.4875 0.5 0.1
0.4625 0.5 0.1
0.4375 0.5 0.1
0.4125 0.5 0.1
0.3875 0.5 0.1
0.3625 0.5 0.1
0.3375 0.5 0.1
0.3125 0.5 0.1
0.2875 0.5 0.1
0.2625 0.5 0.1
0.2375 0.5 0.1
0.2125 0.5 0.1
0.1875 0.5 0.1
0.1625 0.5 0.1
0.1375 0.5 0.1
0.1125 0.5 0.1
0.0875 0.5 0.1
0.0625 0.5 0.1
0.0375 0.5 0.1
0.0125 0.5 0.1
0 0.475 0.1
0 0.45 0.1
0 0.425 0.1
0 0.4 0.1
0 0.375 0.1
0 0.35 0.1
0 0.325 0.1
0 0.3 0.1
0 0.275 0.1
0 0.25 0.1
0 0.225 0.1
0 0.2 0.1
0 0.175 0.1
0 0.15 0.1
0 0.125 0.1
0 0.1 0.1
0 0.075 0.1
0 0.05 0.1
0 0.025 0.1
0 0.4875 0.1
0 0.4625 0.1
0 0.4375 0.1
0 0.4125 0.1
0 0.3875 0.1
0 0.3625 0.1
0 0.3375 0.1
0 0.3125 0.1
0 0.2875 0.1
0 0.2625 0.1
0 0.2375 0.1
0 0.2125 0.1
0 0.1875 0.1
0 0.1625 0.1
0 0.1375 0.1
0 0.1125 0.1
0 0.0875 0.1
0 0.0625 0.1
0 0.0375 0.1
0 0.0125 0.1
0.975 0.475 0.1
0.975 0.45 0.1
0.975 0.425 0.1
0.975 0.4 0.1
0.975 0.375 0.1
0.975 0.35 0.1
0.975 0.325 0.1
0.975 0.3 0.1
0.975 0.275 0.1
0.975 0.25 0.1
0.975 0.225 0.1
0.975 0.2 0.1
0.975 0.175 0.1
0.975 0.15 0.1
0.975 0.125 0.1
0.975 0.1 0.1
0.975 0.075 0.1
0.975 0.05 0.1
0.975 0.025 0.1
0.95 0.475 0.1
0.95 0.45 0.1
0.95 0.425 0.1
0.95 0.4 0.1
0.95 0.375 0.1
0.95 0.35 0.1
0.95 0.325 0.1
0.95 0.3 0.1
0.95 0.275 0.1
0.95 0.25 0.1
0.95 0.225 0.1
0.95 0.2 0.1
0.95 0.175 0.1
0.95 0.15 0.1
0.95 0.125 0.1
0.95 0.1 0.1
0.95 0.075 0.1
0.95 0.05 0.1
0.95 0.025 0.1
0.925 0.475 0.1
0.925 0.45 0.1
0.925 0.425 0.1
0.925 0.4 0.1
0.925 0.375 0.1
0.925 0.35 0.1
0.925 0.325 0.1
0.925 0.3 0.1
0.925 0.275 0.1
0.925 0.25 0.1
0.925 0.225 0.1
0.925 0.2 0.1
0.925 0.175 0.1
0.925 0.15 0.1
0.925 0.125 0.1
0.925 0.1 0.1
0.925 0.075 0.1
0.925 0.05 0.1
0.925 0.025 0.1
0.9 0.475 0.1
0.9 0.45 0.1
0.9 0.425 0.1
0.9 0.4 0.1
0.9 0.375 0.1
0.9 0.35 0.1
0.9 0.325 0.1
0.9 0.3 0.1
0.9 0.275 0.1
0.9 0.25 0.1
0.9 0.225 0.1
0.9 0.2 0.1
0.9 0.175 0.1
0.9 0.15 0.1
0.9 0.125 0.1
0.9 0.1 0.1
0.9 0.075 0.1
0.9 0.05 0.1
0.9 0.025 0.1
0.875 0.475 0.1
0.875 0.45 0.1
0.875 0.425 0.1
0.875 0.4 0.1
0.875 0.375 0.1
0.875 0.35 0.1
0.875 0.325 0.1
0.875 0.3 0.1
0.875 0.275 0.1
0.875 0.25 0.1
0.875 0.225 0.1
0.875 0.2 0.1
0.875 0.175 0.1
0.875 0.15 0.1
0.875 0.125 0.1
0.875 0.1 0.1
0.875 0.075 0.1
0.875 0.05 0.1
0.875 0.025 0.1
0.85 0.475 0.1
0.85 0.45 0.1
0.85 0.425 0.1
0.85 0.4 0.1
0.85 0.375 0.1
0.85 0.35 0.1
0.85 0.325 0.1
0.85 0.3 0.1
0.85 0.275 0.1
0.85 0.25 0.1
0.85 0.225 0.1
0.85 0.2 0.1
0.85 0.175 0.1
0.85 0.15 0.1
0.85 0.125 0.1
0.85 0.1 0.1
0.85 0.075 0.1
0.85 0.05 0.1
0.85 0.025 0.1
0.825 0.475 0.1
0.825 0.45 0.1
0.825 0.425 0.1
0.825 0.4 0.1
0.825 0.375 0.1
0.825 0.35 0.1
0.825 0.325 0.1
0.825 0.3 0.1
0.825 0.275 0.1
0.825 0.25 0.1
0.825 0.225 0.1
0.825 0.2 0.1
0.825 0.175 0.1
0.825 0.15 0.1
0.825 0.125 0.1
0.825 0.1 0.1
0.825 0.075 0.1
0.825 0.05 0.1
0.825 0.025 0.1
0.8 0.475 0.1
0.8 0.45 0.1
0.8 0.425 0.1
0.8 0.4 0.1
0.8 0.375 0.1
0.8 0.35 0.1
0.8 0.325 0.1
0.8 0.3 0.1
0.8 0.275 0.1
0.8 0.25 0.1
0.8 0.225 0.1
0.8 0.2 0.1
0.8 0.175 0.1
0.8 0.15 0.1
0.8 0.125 0.1
0.8 0.1 0.1
0.8 0.075 0.1
0.8 0.05 0.1
0.8 0.025 0.1
0.775 0.475 0.1
0.775 0.45 0.1
0.775 0.425 0.1
0.775 0.4 0.1
0.775 0.375 0.1
0.775 0.35 0.1
0.775 0.325 0.1
0.775 0.3 0.1
0.775 0.275 0.1
0.775 0.25 0.1
0.775 0.225 0.1
0.775 0.2 0.1
0.775 0.175 0.1
0.775 0.15 0.1
0.775 0.125 0.1
0.775 0.1 0.1
0.775 0.075 0.1
0.775 0.05 0.1
0.775 0.025 0.1
0.75 0.475 0.1
0.75 0.45 0.1
0.75 0.425 0.1
0.75 0.4 0.1
0.75 0.375 0.1
0.75 0.35 0.1
0.75 0.325 0.1
0.75 0.3 0.1
0.75 0.275 0.1
0.75 0.25 0.1
0.75 0.225 0.1
0.75 0.2 0.1
0.75 0.175 0.1
0.75 0.15 0.1
0.75 0.125 0.1
0.75 0.1 0.1
0.75 0.075 0.1
0.75 0.05 0.1
0.75 0.025 0.1
0.725 0.475 0.1
0.725 0.45 0.1
0.725 0.425 0.1
0.725 0.4 0.1
0.725 0.375 0.1
0.725 0.35 0.1
0.725 0.325 0.1
0.725 0.3 0.1
0.725 0.275 0.1
0.725 0.25 0.1
0.725 0.225 0.1
0.725 0.2 0.1
0.725 0.175 0.1
0.725 0.15 0.1
0.725 0.125 0.1
0.725 0.1 0.1
0.725 0.075 0.1
0.725 0.05 0.1
0.725 0.025 0.1
0.7 0.475 0.1
0.7 0.45 0.1
0.7 0.425 0.1
0.7 0.4 0.1
0.7 0.375 0.1
0.7 0.35 0.1
0.7 0.325 0.1
0.7 0.3 0.1
0.7 0.275 0.1
0.7 0.25 0.1
0.7 0.225 0.1
0.7 0.2 0.1
0.7 0.175 0.1
0.7 0.15 0.1
0.7 0.125 0.1
0.7 0.1 0.1
0.7 0.075 0.1
0.7 0.05 0.1
0.7 0.025 0.1
0.675 0.475 0.1
0.675 0.45 0.1
0.675 0.425 0.1
0.675 0.4 0.1
0.675 0.375 0.1
0.675 0.35 0.1
0.675 0.325 0.1
0.675 0.3 0.1
0.675 0.275 0.1
0.675 0.25 0.1
0.675 0.225 0.1
0.675 0.2 0.1
0.675 0.175 0.1
0.675 0.15 0.1
0.675 0.125 0.1
0.675 0.1 0.1
0.675 0.075 0.1
0.675 0.05 0.1
0.675 0.025 0.1
0.65 0.475 0.1
0.65 0.45 0.1
0.65 0.425 0.1
0.65 0.4 0.1
0.65 0.375 0.1
0.65 0.35 0.1
0.65 0.325 0.1
0.65 0.3 0.1
0.65 0.275 0.1
0.65 0.25 0.1
0.65 0.225 0.1
0.65 0.2 0.1
0.65 0.175 0.1
0.65 0.15 0.1
0.65 0.125 0.1
0.65 0.1 0.1
0.65 0.075 0.1
0.65 0.05 0.1
0.65 0.025 0.1
0.625 0.475 0.1
0.625 0.45 0.1
0.625 0.425 0.1
0.625 0.4 0.1
0.625 0.375 0.1
0.625 0.35 0.1
0.625 0.325 0.1
0.625 0.3 0.1
0.625 0.275 0.1
0.625 0.25 0.1
0.625 0.225 0.1
0.625 0.2 0.1
0.625 0.175 0.1
0.625 0.15 0.1
0.625 0.125 0.1
0.625 0.1 0.1
0.625 0.075 0.1
0.625 0.05 0.1
0.625 0.025 0.1
0.6 0.475 0.1
0.6 0.45 0.1
0.6 0.425 0.1
0.6 0.4 0.1
0.6 0.375 0.1
0.6 0.35 0.1
0.6 0.325 0.1
0.6 0.3 0.1
0.6 0.275 0.1
0.6 0.25 0.1
0.6 0.225 0.1
0.6 0.2 0.1
0.6 0.175 0.1
0.6 0.15 0.1
0.6 0.125 0.1
0.6 0.1 0.1
0.6 0.075 0.1
0.6 0.05 0.1
0.6 0.025 0.1
0.575 0.475 0.1
0.575 0.45 0.1
0.575 0.425 0.1
0.575 0.4 0.1
0.575 0.375 0.1
0.575 0.35 0.1
0.575 0.325 0.1
0.575 0.3 0.1
0.575 0.275 0.1
0.575 0.25 0.1
0.575 0.225 0.1
0.575 0.2 0.1
0.575 0.175 0.1
0.575 0.15 0.1
0.575 0.125 0.1
0.575 0.1 0.1
0.575 0.075 0.1
0.575 0.05 0.1
0.575 0.025 0.1
0.55 0.475 0.1
0.55 0.45 0.1
0.55 0.425 0.1
0.55 0.4 0.1
0.55 0.375 0.1
0.55 0.35 0.1
0.55 0.325 0.1
0.55 0.3 0.1
0.55 0.275 0.1
0.55 0.25 0.1
0.55 0.225 0.1
0.55 0.2 0.1
0.55 0.175 0.1
0.55 0.15 0.1
0.55 0.125 0.1
0.55 0.1 0.1
0.55 0.075 0.1
0.55 0.05 0.1
0.55 0.025 0.1
0.525 0.475 0.1
0.525 0.45 0.1
0.525 0.425 0.1
0.525 0.4 0.1
0.525 0.375 0.1
0.525 0.35 0.1
0.525 0.325 0.1
0.525 0.3 0.1
0.525 0.275 0.1
0.525 0.25 0.1
0.525 0.225 0.1
0.525 0.2 0.1
0.525 0.175 0.1
0.525 0.15 0.1
0.525 0.125 0.1
0.525 0.1 0.1
0.525 0.075 0.1
0.525 0.05 0.1
0.525 0.025 0.1
0.5 0.475 0.1
0.5 0.45 0.1
0.5 0.425 0.1
0.5 0.4 0.1
0.5 0.375 0.1
0.5 0.35 0.1
0.5 0.325 0.1
0.5 0.3 0.1
0.5 0.275 0.1
0.5 0.25 0.1
0.5 0.225 0.1
0.5 0.2 0.1
0.5 0.175 0.1
0.5 0.15 0.1
0.5 0.125 0.1
0.5 0.1 0.1
0.5 0.075 0.1
0.5 0.05 0.1
0.5 0.025 0.1
0.475 0.475 0.1
0.475 0.45 0.1
0.475 0.425 0.1
0.475 0.4 0.1
0.475 0.375 0.1
0.475 0.35 0.1
0.475 0.325 0.1
0.475 0.3 0.1
0.475 0.275 0.1
0.475 0.25 0.1
0.475 0.225 0.1
0.475 0.2 0.1
0.475 0.175 0.1
0.475 0.15 0.1
0.475 0.125 0.1
0.475 0.1 0.1
0.475 0.075 0.1
0.475 0.05 0.1
0.475 0.025 0.1
0.45 0.475 0.1
0.45 0.45 0.1
0.45 0.425 0.1
0.45 0.4 0.1
0.45 0.375 0.1
0.45 0.35 0.1
0.45 0.325 0.1
0.45 0.3 0.1
0.45 0.275 0.1
0.45 0.25 0.1
0.45 0.225 0.1
0.45 0.2 0.1
0.45 0.175 0.1
0.45 0.15 0.1
0.45 0.125 0.1
0.45 0.1 0.1
0.45 0.075 0.1
0.45 0.05 0.1
0.45 0.025 0.1
0.425 0.475 0.1
0.425 0.45 0.1
0.425 0.425 0.1
0.425 0.4 0.1
0.425 0.375 0.1
0.425 0.35 0.1
0.425 0.325 0.1
0.425 0.3 0.1
0.425 0.275 0.1
0.425 0.25 0.1
0.425 0.225 0.1
0.425 0.2 0.1
0.425 0.175 0.1
0.425 0.15 0.1
0.425 0.125 0.1
0.425 0.1 0.1
0.425 0.075 0.1
0.425 0.05 0.1
0.425 0.025 0.1
0.4 0.475 0.1
0.4 0.45 0.1
0.4 0.425 0.1
0.4 0.4 0.1
0.4 0.375 0.1
0.4 0.35 0.1
0.4 0.325 0.1
0.4 0.3 0.1
0.4 0.275 0.1
0.4 0.25 0.1
0.4 0.225 0.1
0.4 0.2 0.1
0.4 0.175 0.1
0.4 0.15 0.1
0.4 0.125 0.1
0.4 0.1 0.1
0.4 0.075 0.1
0.4 0.05 0.1
0.4 0.025 0.1
0.375 0.475 0.1
0.375 0.45 0.1
0.375 0.425 0.1
0.375 0.4 0.1
0.375 0.375 0.1
[...]
    <PointData>
      <DataArray type="Float64" NumberOfComponents="3" Name="Velocity" format="ascii">
0 0 0
0 0 0
0 0 0
0 0 0
0 0 0
0 0 0
0 0 0
0 0 0
0 0 0
0 0 0
0 0 0
0 0 0
0 0 0
0 0 0
0 0 0
0 0 0
0 0 0
0 0 0
0 0 0
0 0 0
0 0 0
0 0 0
0 0 0
0 0 0
0 0 0
0 0 0
0 0 0
0 0 0
0 0 0
0 0 0
0 0 0
0 0 0
0 0 0
0 0 0
0 0 0
0 0 0
0 0 0
0 0 0
0 0 0
0 0 0
0 0 0
0 0 0
0 0 0
0 0 0
0 0 0
0 0 0
0 0 0
0 0 0
0 0 0
0 0 0
0 0 0
0 0 0
0 0 0
0 0 0
0 0 0
0 0 0
0 0 0
0 0 0
0 0 0
0 0 0
0 0 0
0 0 0
0 0 0
0 0 0
0 0 0
0 0 0
0 0 0
0 0 0
0 0 0
0 0 0
0 0 0
0 0 0
0 0 0
0 0 0
0 0 0
0 0 0
0 0 0
0 0 0
0 0 0
0 0 0
0 0 0
0 0 0
0 0 0
0 0 0
0 0 0
0 0 0
0 0 0
0 0 0
0 0 0
0 0 0
0 0 0
0 0 0
0 0 0
0 0 0
0 0 0
0 0 0
0 0 0
0 0 0
0 0 0
0 0 0
0 0 0
0 0 0
0 0 0
0 0 0
0 0 0
0 0 0
0 0 0
0 0 0
0 0 0
0 0 0
0 0 0
0 0 0
0 0 0
0 0 0
0 0 0
0 0 0
0 0 0
0 0 0
0 0 0
0 0 0
0 0 0
0 0 0
-0.00283137 -0.0419541 0
-0.00995538 -0.0769905 0
-0.0204153 -0.106001 0
-0.0325377 -0.129578 0
-0.0463828 -0.147909 0
-0.0615307 -0.160602 0
-0.0766318 -0.168274 0
-0.0915105 -0.17106 0
-0.105838 -0.169388 0
-0.11901 -0.164095 0
-0.130948 -0.155226 0
-0.141479 -0.143431 0
-0.150479 -0.129039 0
-0.158151 -0.112473 0
-0.164424 -0.0945419 0
-0.169204 -0.0753062 0
-0.172644 -0.0552615 0
-0.174658 -0.0348067 0
-0.175362 -0.0141382 0
-0.174834 0.00621476 0
-0.17309 0.0262507 0
-0.170202 0.0459048 0
-0.166147 0.0647794 0
-0.160866 0.0828118 0
-0.154427 0.0996944 0
-0.14683 0.115149 0
-0.138136 0.129085 0
-0.128406 0.140945 0
-0.117592 0.150496 0
-0.105854 0.157433 0
-0.093388 0.161292 0
-0.0802035 0.161985 0
-0.0667196 0.158904 0
-0.0534424 0.151493 0
-0.0408081 0.139044 0
-0.0288513 0.121141 0
-0.0181537 0.0980537 0
-0.00920611 0.0697518 0
-0.00312697 0.0360753 0
-0.00124374 -0.020493 0
-0.00591873 -0.0602576 0
-0.0149725 -0.0922363 0
-0.0263307 -0.118513 0
-0.0393187 -0.139482 0
-0.05399 -0.155052 0
-0.069184 -0.165203 0
-0.0841976 -0.170439 0
-0.0988743 -0.17091 0
-0.112644 -0.167396 0
-0.125196 -0.160245 0
-0.136445 -0.149821 0
-0.146207 -0.13671 0
-0.154519 -0.121127 0
-0.161511 -0.103819 0
-0.167024 -0.0852261 0
-0.171134 -0.0654979 0
-0.173865 -0.0452476 0
-0.175206 -0.0246127 0
-0.175275 -0.00400109 0
-0.174124 0.0162078 0
-0.171797 0.0361199 0
-0.168329 0.0554231 0
-0.163651 0.0739079 0
-0.157777 0.0914404 0
-0.150752 0.107628 0
-0.142586 0.12239 0
-0.13337 0.135342 0
-0.123086 0.146072 0
-0.111775 0.154392 0
-0.0996759 0.159797 0
-0.0868282 0.162092 0
-0.0734322 0.160989 0
-0.0600101 0.155803 0
-0.0470351 0.146 0
-0.0346793 0.1308 0
-0.0232867 0.110281 0
-0.0133676 0.0846148 0
-0.00569426 0.0536803 0
-0.00292945 0.0169336 0
0 0 0
0 0 0
0 0 0
0 0 0
0 0 0
0 0 0
0 0 0
0 0 0
0 0 0
0 0 0
0 0 0
0 0 0
0 0 0
0 0 0
0 0 0
0 0 0
0 0 0
0 0 0
0 0 0
0 0 0
0 0 0
0 0 0
0 0 0
0 0 0
0 0 0
0 0 0
0 0 0
0 0 0
0 0 0
0 0 0
0 0 0
0 0 0
0 0 0
0 0 0
0 0 0
0 0 0
0 0 0
0 0 0
0 0 0
-0.00444751 -0.0359366 0
-0.00437293 -0.0309793 0
-0.00376743 -0.0260597 0
-0.0024875 -0.022104 0
-0.00186998 -0.0192217 0
-0.00162388 -0.0165882 0
-0.00147508 -0.0141313 0
-0.00134942 -0.0118566 0
-0.00122909 -0.00976786 0
-0.00110948 -0.0078665 0
-0.000988603 -0.00615386 0
-0.000864781 -0.0046329 0
-0.000736282 -0.00330916 0
-0.000601594 -0.00219095 0
-0.000460196 -0.00128895 0
-0.000314099 -0.000614899 0
-0.000169193 -0.000179356 0
-2.90288e-05 2.35395e-05 0
5.91695e-05 5.13004e-05 0
-0.0107423 -0.0662363 0
-0.010658 -0.0575701 0
-0.00960903 -0.0499912 0
-0.00756258 -0.0434028 0
-0.00625799 -0.0377165 0
-0.00555819 -0.0324805 0
-0.00505477 -0.027698 0
-0.00461572 -0.0233286 0
-0.0042004 -0.0193453 0
-0.00379376 -0.015732 0
-0.00338758 -0.012481 0
-0.00297534 -0.00959145 0
-0.00255102 -0.00706801 0
-0.00210968 -0.00492011 0
-0.00164914 -0.00316016 0
-0.00117328 -0.00180035 0
-0.000697676 -0.000845802 0
-0.000262847 -0.000278518 0
3.0893e-05 -3.73696e-05 0
-0.0197112 -0.0921649 0
-0.0189604 -0.0808389 0
-0.0173595 -0.0710117 0
-0.014926 -0.0623399 0
-0.0130438 -0.0544509 0
-0.0117088 -0.0470279 0
-0.0106395 -0.0402249 0
-0.00969575 -0.0340209 0
-0.00881364 -0.0283753 0
-0.00796095 -0.023258 0
-0.00711789 -0.0186511 0
-0.00626951 -0.0145473 0
-0.00540341 -0.0109469 0
-0.00451016 -0.00785608 0
-0.00358605 -0.00528433 0
-0.00263855 -0.00324017 0
-0.00169661 -0.00172464 0
-0.00082954 -0.000721004 0
-0.000177966 -0.000182767 0
-0.0309232 -0.113478 0
-0.029276 -0.100255 0
-0.0269912 -0.0886362 0
-0.0241524 -0.0782539 0
-0.0217619 -0.068732 0
-0.0197155 -0.0596645 0
-0.01795 -0.0512653 0
-0.0163599 -0.0435612 0
-0.0148726 -0.0365288 0
-0.0134419 -0.0301401 0
-0.0120357 -0.0243748 0
-0.0106298 -0.0192211 0
-0.00920446 -0.0146753 0
-0.00774547 -0.0107397 0
-0.00624739 -0.00741987 0
-0.00472063 -0.00472203 0
-0.00320363 -0.00264811 0
-0.00178239 -0.00119042 0
-0.000619964 -0.000324763 0
-0.0437837 -0.130071 0
-0.0411697 -0.115587 0
-0.0382101 -0.102707 0
-0.0348618 -0.091007 0
-0.0318798 -0.0803215 0
-0.0291215 -0.0700873 0
-0.0266182 -0.0605116 0
-0.0243071 -0.0516603 0
-0.0221253 -0.0435372 0
-0.0200232 -0.0361276 0
-0.0179613 -0.0294155 0
-0.0159079 -0.0233894 0
-0.0138368 -0.0180437 0
-0.0117288 -0.0133783 0
-0.00957566 -0.00939713 0
-0.00738792 -0.00610688 0
-0.00520676 -0.00351534 0
-0.0031222 -0.00163021 0
-0.00129784 -0.000458288 0
-0.0576576 -0.141985 0
-0.0540775 -0.126847 0
-0.0505282 -0.113247 0
-0.0466589 -0.100726 0
-0.0429804 -0.089231 0
-0.0395218 -0.0781866 0
-0.03628 -0.067794 0
-0.0332209 -0.0581277 0
-0.0302997 -0.049208 0
-0.0274718 -0.0410333 0
-0.0246965 -0.033595 0
-0.0219373 -0.026885 0
-0.0191632 -0.0208986 0
-0.0163501 -0.0156357 0
-0.0134853 -0.0111015 0
-0.0105755 -0.00730624 0
-0.00765695 -0.00426728 0
-0.00481111 -0.00201084 0
-0.00218302 -0.000574577 0
-0.0719321 -0.149385 0
-0.0674857 -0.134088 0
-0.0634216 -0.120233 0
-0.0591045 -0.107375 0
-0.054734 -0.0954394 0
-0.0505752 -0.0839153 0
-0.0466032 -0.0730292 0
-0.0427963 -0.0628552 0
-0.0391239 -0.0534209 0
-0.0355494 -0.0447336 0
-0.0320339 -0.0367922 0
-0.0285396 -0.0295934 0
-0.0250317 -0.0231358 0
-0.0214811 -0.0174216 0
-0.0178691 -0.0124596 0
-0.0141941 -0.0082662 0
-0.0104807 -0.00487 0
-0.0067914 -0.00231571 0
-0.00323935 -0.000667872 0
-0.0861063 -0.152389 0
-0.0809287 -0.137387 0
-0.076441 -0.123695 0
-0.071756 -0.110898 0
-0.0667775 -0.0989134 0
-0.0619518 -0.0872579 0
-0.0572772 -0.0761905 0
-0.0527447 -0.0657988 0
-0.0483351 -0.0561177 0
-0.0440199 -0.0471622 0
-0.0397642 -0.0389378 0
-0.0355303 -0.0314472 0
-0.0312805 -0.0246932 0
-0.0269807 -0.0186827 0
-0.0226044 -0.0134293 0
-0.0181383 -0.00895705 0
-0.0135898 -0.00530577 0
-0.0089947 -0.00253664 0
-0.00442602 -0.000735669 0
-0.0997376 -0.151471 0
-0.0939968 -0.137107 0
-0.0892135 -0.1239 0
-0.084248 -0.111468 0
-0.0787589 -0.0997411 0
-0.0733352 -0.0882642 0
-0.0680099 -0.0773078 0
-0.0627947 -0.0669696 0
-0.0576833 -0.0572936 0
-0.0526554 -0.0483019 0
-0.0476809 -0.0400074 0
-0.0427234 -0.0324186 0
-0.0377432 -0.0255439 0
-0.0327006 -0.0193952 0
-0.0275599 -0.0139922 0
-0.0222937 -0.00936647 0
-0.016888 -0.00556794 0
-0.0113475 -0.00267103 0
-0.00570016 -0.000777342 0
-0.112535 -0.147099 0
-0.106407 -0.133581 0
-0.101462 -0.121099 0
-0.0963095 -0.109276 0
-0.090387 -0.0980744 0
-0.0844398 -0.0870493 0
-0.0785325 -0.076466 0
-0.0726952 -0.0664286 0
-0.0669347 -0.0569892 0
-0.0612395 -0.048178 0
-0.0555852 -0.0400146 0
-0.0499372 -0.0325137 0
-0.044254 -0.0256893 0
-0.0384907 -0.019559 0
-0.0326013 -0.0141481 0
-0.0265425 -0.00949497 0
-0.0202767 -0.0056577 0
-0.0137751 -0.00272002 0
-0.00701891 -0.000793392 0
-0.124284 -0.139513 0
-0.117928 -0.127046 0
-0.112938 -0.115507 0
-0.107674 -0.104546 0
-0.101395 -0.0941191 0
-0.095013 -0.0837819 0
-0.0886056 -0.0737978 0
-0.0822197 -0.0642785 0
-0.0758755 -0.0552836 0
-0.0695716 -0.0468501 0
-0.0632895 -0.0390039 0
-0.0569973 -0.0317654 0
-0.0506524 -0.0251541 0
-0.0442041 -0.0191923 0
-0.0375959 -0.0139106 0
-0.030768 -0.00935263 0
-0.0236585 -0.00558189 0
-0.0162044 -0.00268744 0
-0.00834089 -0.000785076 0
-0.134806 -0.129283 0
-0.12838 -0.11799 0
-0.123435 -0.107544 0
-0.118117 -0.0976217 0
-0.111573 -0.0881385 0
-0.104847 -0.0786694 0
-0.0980253 -0.0694704 0
-0.09117 -0.0606544 0
-0.084315 -0.0522851 0
-0.0774694 -0.0444048 0
-0.0706212 -0.037044 0
-0.0637416 -0.030228 0
-0.0567868 -0.0239803 0
-0.0497009 -0.0183277 0
-0.042417 -0.0133041 0
-0.0348589 -0.0089567 0
-0.0269406 -0.00535154 0
-0.0185663 -0.002579 0
-0.00962729 -0.000754174 0
-0.143939 -0.116706 0
-0.137623 -0.106781 0
-0.132811 -0.0975521 0
-0.127488 -0.0887927 0
-0.120765 -0.0803896 0
-0.113777 -0.0719338 0
-0.106622 -0.0636709 0
-0.0993766 -0.0557124 0
-0.0920867 -0.0481236 0
-0.0847712 -0.040949 0
-0.0774249 -0.0342223 0
-0.0700219 -0.0279718 0
-0.0625178 -0.0222241 0
-0.0548517 -0.0170083 0
-0.0469469 -0.0123608 0
-0.0387115 -0.00832966 0
-0.0300371 -0.00498069 0
-0.0207969 -0.00240177 0
-0.0108426 -0.000702849 0
-0.151608 -0.102077 0
-0.145498 -0.0936791 0
-0.140943 -0.0858377 0
-0.135666 -0.0783511 0
-0.128841 -0.0711317 0
-0.121668 -0.0638022 0
-0.114257 -0.0565961 0
-0.106698 -0.0496216 0
-0.0990484 -0.0429425 0
-0.0913367 -0.0366035 0
-0.0835638 -0.0306391 0
-0.0757067 -0.0250788 0
-0.0677205 -0.0199508 0
-0.0595398 -0.0152852 0
-0.0510791 -0.0111185 0
-0.0422322 -0.00749777 0
-0.0328703 -0.00448555 0
-0.0228393 -0.00216383 0
-0.0119553 -0.000633525 0
-0.157856 -0.085997 0
-0.151966 -0.0791494 0
-0.14773 -0.072764 0
-0.142572 -0.0666066 0
-0.135711 -0.0606254 0
-0.128419 -0.0545017 0
-0.120819 -0.0484462 0
-0.113017 -0.0425571 0
-0.105081 -0.0368935 0
-0.0970471 -0.0314976 0
-0.0889208 -0.026403 0
-0.0806822 -0.0216388 0
-0.0722862 -0.0172328 0
-0.0636633 -0.0132147 0
-0.0547204 -0.00961904 0
-0.0453389 -0.0064898 0
-0.0353725 -0.00388372 0
-0.0246435 -0.00187385 0
-0.0129378 -0.000548796 0
-0.16273 -0.0687223 0
-0.157063 -0.0634794 0
-0.153139 -0.0585681 0
-0.148173 -0.0537893 0
-0.141313 -0.049104 0
-0.133949 -0.0442519 0
-0.12622 -0.0394207 0
-0.118242 -0.0346966 0
-0.110089 -0.0301323 0
-0.101804 -0.0257659 0
-0.0933985 -0.0216281 0
-0.0848532 -0.0177464 0
-0.076123 -0.0141466 0
-0.0671357 -0.0108561 0
-0.0577916 -0.00790646 0
-0.047962 -0.00533604 0
-0.0374863 -0.00319368 0
-0.0261677 -0.00154092 0
-0.0137674 -0.000451353 0
-0.166285 -0.0506192 0
-0.160847 -0.0469948 0
-0.157194 -0.0435397 0
-0.152411 -0.0401507 0
-0.145586 -0.0368021 0
-0.138196 -0.033271 0
-0.130393 -0.0297184 0
-0.122299 -0.0262186 0
-0.113996 -0.0228165 0
-0.105532 -0.0195449 0
-0.0969195 -0.0164309 0
-0.0881431 -0.0134985 0
-0.0791571 -0.0107706 0
-0.069887 -0.00827099 0
-0.0602285 -0.00602614 0
-0.0500451 -0.00406761 0
-0.0391655 -0.0024343 0
-0.027378 -0.00117425 0
-0.0144255 -0.000343921 0
-0.168573 -0.0320497 0
-0.163363 -0.0299937 0
-0.159919 -0.0279733 0
-0.155276 -0.0259672 0
-0.148499 -0.0239625 0
-0.141119 -0.0217771 0
-0.133289 -0.0195369 0
-0.125137 -0.0173001 0
-0.116748 -0.0151028 0
-0.108172 -0.0129715 0
-0.0994258 -0.0109282 0
-0.0904943 -0.0089929 0
-0.0813324 -0.00718419 0
-0.0718641 -0.00552103 0
-0.0619823 -0.00402381 0
-0.0515454 -0.00271578 0
-0.0403747 -0.00162453 0
-0.028249 -0.000783071 0
-0.0148985 -0.000229212 0
-0.16962 -0.0131913 0
-0.164605 -0.0126542 0
-0.161291 -0.0120712 0
-0.15675 -0.0114624 0
-0.150033 -0.0108126 0
-0.142694 -0.00998266 0
-0.134882 -0.00906939 0
-0.126725 -0.00811524 0
-0.11831 -0.00714602 0
-0.109688 -0.00618095 0
-0.100879 -0.00523632 0
-0.0918681 -0.00432686 0
-0.0826107 -0.00346629 0
-0.0730307 -0.00266788 0
-0.0630195 -0.00194498 0
-0.0524334 -0.00131163 0
-0.0410901 -0.000783139 0
-0.0287632 -0.000376482 0
-0.0151769 -0.000109896 0
-0.169399 0.00560211 0
-0.16452 0.00470231 0
-0.161283 0.00387476 0
-0.156827 0.00311138 0
-0.150187 0.00242565 0
-0.142918 0.00190857 0
-0.135162 0.00149704 0
-0.127049 0.0011665 0
-0.118665 0.00090247 0
-0.110062 0.000693822 0
-0.10126 0.000530649 0
-0.0922442 0.000403863 0
-0.0829718 0.000305269 0
-0.0733672 0.000227756 0
-0.0633221 0.000165515 0
-0.0526934 0.000114257 0
-0.0412987 7.14556e-05 0
-0.0289117 3.65976e-05 0
-0.015256 1.14239e-05 0
-0.167877 0.0241415 0
-0.163077 0.0218507 0
-0.159908 0.0196505 0
-0.15553 0.0175492 0
-0.148979 0.0155503 0
-0.141801 0.0137037 0
-0.134138 0.0119825 0
-0.126115 0.0103806 0
-0.117817 0.00889511 0
-0.109295 0.00752299 0
-0.100567 0.00626087 0
-0.0916208 0.00510544 0
-0.0824133 0.0040542 0
-0.0728707 0.00310636 0
-0.0628873 0.00226378 0
-0.0523227 0.00153199 0
-0.0409986 0.000921266 0
-0.028693 0.000447484 0
-0.0151353 0.000132217 0
-0.165039 0.0422974 0
-0.160278 0.0386479 0
-0.157179 0.0350963 0
-0.152871 0.0316678 0
-0.146424 0.0283682 0
-0.139363 0.025215 0
-0.13183 0.0222113 0
-0.123943 0.0193666 0
-0.115785 0.0166879 0
-0.107405 0.0141798 0
-0.0988185 0.0118452 0
-0.090014 0.00968629 0
-0.0809498 0.00770607 0
-0.0715548 0.00590989 0
-0.0617271 0.00430701 0
-0.0513321 0.00291245 0
-0.0401985 0.00174879 0
-0.0281138 0.000847746 0
-0.0148183 0.000250034 0
-0.160947 0.059726 0
-0.156202 0.0547883 0
-0.153127 0.0499465 0
-0.148878 0.0452296 0
-0.142553 0.0406701 0
-0.13564 0.0362517 0
-0.128275 0.0320093 0
-0.120572 0.0279666 0
-0.112608 0.02414 0
-0.104429 0.0205407 0
-0.0960493 0.0171773 0
-0.0874575 0.0140572 0
-0.0786132 0.0111884 0
-0.0694488 0.00858186 0
-0.0598682 0.00625359 0
-0.0497447 0.00422732 0
-0.0389177 0.00253704 0
-0.0271882 0.0012292 0
-0.014313 0.000362498 0
-0.155642 0.0762921 0
-0.150911 0.0700736 0
-0.147806 0.0639693 0
-0.143605 0.0580088 0
-0.137418 0.0522451 0
-0.130684 0.0466229 0
-0.123528 0.0412038 0
-0.116056 0.0360256 0
-0.108339 0.0311134 0
-0.100421 0.026485 0
-0.0923124 0.0221538 0
-0.0840021 0.0181316 0
-0.0754516 0.0144309 0
-0.0665977 0.0110675 0
-0.0573514 0.00806311 0
-0.0475963 0.00544911 0
-0.0371855 0.00326951 0
-0.0259375 0.00158389 0
-0.0136311 0.000467301 0
-0.149146 0.0917361 0
-0.14443 0.0842529 0
-0.141265 0.0769143 0
-0.137115 0.069778 0
-0.13109 0.0628881 0
-0.124568 0.0561414 0
-0.117661 0.0496254 0
-0.110467 0.0433917 0
-0.103052 0.0374738 0
-0.095452 0.0318953 0
-0.0876775 0.026674 0
-0.0797152 0.0218254 0
-0.0715292 0.0173655 0
-0.0630614 0.0133137 0
-0.0542313 0.00969646 0
-0.0449346 0.00655119 0
-0.0350409 0.00393017 0
-0.0243902 0.00190409 0
-0.012788 0.000562192 0
-0.141511 0.105789 0
-0.136798 0.097077 0
-0.133581 0.0885594 0
-0.129506 0.0803317 0
-0.12366 0.0724056 0
-0.117379 0.0646273 0
-0.110762 0.0571096 0
-0.103895 0.0499171 0
-0.0968347 0.0430904 0
-0.089611 0.0366579 0
-0.0822308 0.030641 0
-0.0746801 0.0250578 0
-0.0669254 0.0199266 0
-0.0589141 0.0152694 0
-0.0505753 0.0111159 0
-0.0418185 0.0075078 0
-0.0325324 0.00450347 0
-0.0225817 0.00218227 0
-0.0118031 0.000644969 0
-0.132764 0.118301 0
-0.128067 0.108378 0
-0.124834 0.0987447 0
-0.120858 0.0894931 0
-0.11522 0.0806112 0
-0.109218 0.0719039 0
-0.102936 0.0634957 0
-0.0964459 0.055458 0
-0.0897936 0.0478368 0
-0.0830021 0.0406635 0
-0.0760745 0.0339618 0
-0.0689956 0.0277513 0
-0.0617341 0.0220515 0
-0.0542437 0.0168858 0
-0.0464635 0.0122853 0
-0.0383183 0.00829416 0
-0.0297176 0.00497439 0
-0.020554 0.00241111 0
-0.0106992 0.000713473 0
-0.122972 0.128847 0
-0.118336 0.117817 0
-0.115132 0.107185 0
-0.111269 0.0970207 0
-0.105881 0.0873038 0
-0.100206 0.0777947 0
-0.0943063 0.0686266 0
-0.0882432 0.0598762 0
-0.0820514 0.0515924 0
-0.0757463 0.0438085 0
-0.0693262 0.0365488 0
-0.0627747 0.0298333 0
-0.0560629 0.0236816 0
-0.0491504 0.0181169 0
-0.0419871 0.0131705 0
-0.0345138 0.00888669 0
-0.0266624 0.00532848 0
-0.0183553 0.00258349 0
-0.00950294 0.000765577 0
-0.112244 0.137204 0
-0.107751 0.125164 0
-0.104617 0.113649 0
-0.100887 0.102699 0
-0.0957915 0.0922903 0
-0.0904842 0.0821285 0
-0.0850155 0.0723517 0
-0.0794293 0.0630404 0
-0.0737488 0.0542444 0
-0.0679807 0.0459968 0
-0.0621185 0.0383214 0
-0.0561446 0.0312373 0
-0.0500319 0.0247631 0
-0.0437462 0.0189209 0
-0.0372481 0.0137402 0
-0.0304945 0.00926347 0
-0.0234405 0.00555212 0
-0.0160397 0.00269257 0
-0.00824393 0.000799201 0
-0.100708 0.143114 0
-0.0964645 0.130179 0
-0.0934483 0.117925 0
-0.0898724 0.106344 0
-0.0851111 0.0953924 0
-0.0802178 0.0847424 0
-0.0752278 0.0745293 0
-0.0701664 0.0648298 0
-0.0650437 0.0556908 0
-0.0598581 0.0471432 0
-0.0545982 0.0392089 0
-0.0492446 0.0319055 0
-0.0437723 0.0252496 0
-0.0381529 0.0192611 0
-0.0323571 0.0139665 0
-0.0263577 0.00940486 0
-0.0201324 0.00563283 0
-0.0136667 0.00273193 0
-0.00695512 0.00081232 0
-0.0885825 0.146156 0
-0.084709 0.132533 0
-0.081847 0.119748 0
-0.0784234 0.107729 0
-0.0740285 0.0964214 0
-0.0695969 0.085481 0
-0.0651314 0.0750314 0
-0.0606373 0.065139 0
-0.0561122 0.0558451 0
-0.0515466 0.047177 0
-0.0469245 0.0391541 0
-0.0422251 0.0317917 0
-0.037425 0.0251042 0
-0.0325007 0.0191085 0
-0.0274322 0.0138274 0
-0.022207 0.00929464 0
-0.0168243 0.00555987 0
-0.0113002 0.00269576 0
-0.00567224 0.00080301 0
-0.0761304 0.146139 0
-0.0727559 0.13203 0
-0.0700484 0.118916 0
-0.0667647 0.106645 0
-0.0627745 0.0952038 0
-0.0588459 0.0842103 0
-0.0549404 0.0737534 0
-0.0510448 0.0638857 0
-0.0471462 0.0546424 0
-0.0432274 0.0460474 0
-0.039268 0.0381175 0
-0.0352454 0.0308654 0
-0.0311375 0.0243031 0
-0.0269251 0.0184445 0
-0.0225961 0.0133082 0
-0.0181503 0.00892157 0
-0.0136061 0.00532517 0
-0.00900774 0.00257927 0
-0.00443333 0.00076952 0
-0.06369 0.142689 0
-0.0608654 0.128382 0
-0.0582704 0.115172 0
-0.0551476 0.102907 0
-0.0516184 0.0916154 0
-0.0482175 0.0808399 0
-0.044889 0.0706267 0
-0.0416079 0.0610181 0
-0.0383506 0.0520452 0
-0.035092 0.0437287 0
-0.0318066 0.0360822 0
-0.0284702 0.0291161 0
-0.0250614 0.0228398 0
-0.0215644 0.0172647 0
-0.017973 0.0124051 0
-0.0142968 0.0082817 0
-0.0105693 0.00492481 0
-0.00685829 0.00237935 0
-0.003278 0.000710417 0
-0.0516224 0.135342 0
-0.0492918 0.121256 0
-0.0467736 0.108335 0
-0.0438937 0.0964423 0
-0.0408518 0.0856177 0
-0.0379722 0.0753358 0
-0.0352189 0.0656238 0
-0.032554 0.0565195 0
-0.0299389 0.0480484 0
-0.0273387 0.0402255 0
-0.0247229 0.0330598 0
-0.0220662 0.026559 0
-0.0193479 0.0207305 0
-0.0165547 0.0155834 0
-0.0136843 0.0111289 0
-0.0107527 0.00738169 0
-0.00780312 0.00436132 0
-0.00492021 0.00209572 0
-0.00224624 0.000624862 0
-0.0401454 0.123726 0
-0.0383384 0.110503 0
-0.0359095 0.0984342 0
-0.033286 0.0873223 0
-0.0307176 0.077228 0
-0.0283507 0.0676963 0
-0.0261705 0.0587498 0
-0.0241156 0.0504089 0
-0.0221294 0.0426837 0
-0.0201684 0.0355784 0
-0.0181994 0.0290961 0
-0.0161973 0.023241 0
-0.0141431 0.0180195 0
-0.0120253 0.0134397 0
-0.00984365 0.0095111 0
-0.0076162 0.00624349 0
-0.00539004 0.00364711 0
-0.00325729 0.00173293 0
-0.00137645 0.000513157 0
-0.0294736 0.107743 0
-0.0283113 0.0960378 0
-0.0260157 0.085345 0
-0.0235444 0.0754468 0
-0.0214288 0.0663931 0
-0.0195964 0.0579169 0
-0.017995 0.0500376 0
-0.0165339 0.0427448 0
-0.015145 0.0360255 0
-0.0137824 0.0298709 0
-0.0124149 0.0242776 0
-0.0110203 0.0192477 0
-0.00958266 0.0147873 0
-0.00809241 0.0109051 0
-0.00654958 0.00761053 0
-0.0049704 0.0049111 0
-0.00339869 0.00281009 0
-0.00192308 0.00130376 0
-0.000702308 0.000377956 0
-0.0197645 0.0874295 0
-0.0193301 0.0777903 0
-0.0173188 0.0688522 0
-0.0149759 0.0605985 0
-0.0132918 0.0530332 0
-0.0120132 0.0460219 0
-0.0109775 0.0395705 0
-0.010067 0.0336409 0
-0.0092142 0.0282023 0
-0.00838034 0.0232371 0
-0.00754146 0.0187394 0
-0.00668121 0.0147107 0
-0.00578785 0.0111583 0
-0.00485402 0.00809241 0
-0.0038791 0.00552384 0
-0.00287462 0.00346041 0
-0.00187459 0.00190229 0
-0.000952232 0.000836205 0
-0.000245501 0.000225905 0
-0.0114549 0.062894 0
-0.0115393 0.0559163 0
-0.00996653 0.049049 0
-0.00793852 0.0428152 0
-0.00671749 0.0372345 0
-0.00597573 0.0321577 0
-0.00543996 0.0275273 0
-0.00498825 0.023288 0
-0.00456953 0.0194072 0
-0.00415955 0.0158697 0
-0.00374453 0.0126716 0
-0.00331516 0.00981592 0
-0.00286442 0.007311 0
-0.00238746 0.00516807 0
-0.00188294 0.00339931 0
-0.00135655 0.00201416 0
-0.000828557 0.00101374 0
-0.000348035 0.000383354 0
-1.04093e-05 8.04807e-05 0
-0.00524411 0.0343749 0
-0.00509469 0.0305737 0
-0.00406463 0.0261588 0
-0.00280079 0.0224101 0
-0.00215804 0.0193457 0
-0.00187723 0.0166554 0