<?xml version="1.0"?>
<VTKFile type="UnstructuredGrid">
  <UnstructuredGrid>
  <Piece NumberOfPoints="4352"  NumberOfCells="2048">
    <Points>
      <DataArray type="Float64" NumberOfComponents="3" format="ascii">
0 0 0.1
0.2 0 0.1
0.5 0 0.1
0.8 0 0.1
1 0 0.1
0 0.2 0.1
0.2 0.2 0.1
0.5 0.2 0.1
0.8 0.2 0.1
1 0.2 0.1
0 0.5 0.1
0.2 0.5 0.1
0.8 0.5 0.1
1 0.5 0.1
0 0.8 0.1
0.2 0.8 0.1
0.5 0.8 0.1
0.8 0.8 0.1
1 0.8 0.1
0 1 0.1
0.2 1 0.1
0.5 1 0.1
0.8 1 0.1
1 1 0.1
0.025 0 0.1
0.05 0 0.1
0.075 0 0.1
0.1 0 0.1
0.125 0 0.1
0.15 0 0.1
0.175 0 0.1
0.0125 0 0.1
0.0375 0 0.1
0.0625 0 0.1
0.0875 0 0.1
0.1125 0 0.1
0.1375 0 0.1
0.1625 0 0.1
0.1875 0 0.1
0.225 0 0.1
0.25 0 0.1
0.275 0 0.1
0.3 0 0.1
0.325 0 0.1
0.35 0 0.1
0.375 0 0.1
0.4 0 0.1
0.425 0 0.1
0.45 0 0.1
0.475 0 0.1
0.2125 0 0.1
0.2375 0 0.1
0.2625 0 0.1
0.2875 0 0.1
0.3125 0 0.1
0.3375 0 0.1
0.3625 0 0.1
0.3875 0 0.1
0.4125 0 0.1
0.4375 0 0.1
0.4625 0 0.1
0.4875 0 0.1
0.525 0 0.1
0.55 0 0.1
0.575 0 0.1
0.6 0 0.1
0.625 0 0.1
0.65 0 0.1
0.675 0 0.1
0.7 0 0.1
0.725 0 0.1
0.75 0 0.1
0.775 0 0.1
0.5125 0 0.1
0.5375 0 0.1
0.5625 0 0.1
0.5875 0 0.1
0.6125 0 0.1
0.6375 0 0.1
0.6625 0 0.1
0.6875 0 0.1
0.7125 0 0.1
0.7375 0 0.1
0.7625 0 0.1
0.7875 0 0.1
0.825 0 0.1
0.85 0 0.1
0.875 0 0.1
0.9 0 0.1
0.925 0 0.1
0.95 0 0.1
0.975 0 0.1
0.8125 0 0.1
0.8375 0 0.1
0.8625 0 0.1
0.8875 0 0.1
0.9125 0 0.1
0.9375 0 0.1
0.9625 0 0.1
0.9875 0 0.1
0 0.025 0.1
0 0.05 0.1
0 0.075 0.1
0 0.1 0.1
0 0.125 0.1
0 0.15 0.1
0 0.175 0.1
0 0.0125 0.1
0 0.0375 0.1
0 0.0625 0.1
0 0.0875 0.1
0 0.1125 0.1
0 0.1375 0.1
0 0.1625 0.1
0 0.1875 0.1
0.2 0.025 0.1
0.2 0.05 0.1
0.2 0.075 0.1
0.2 0.1 0.1
0.2 0.125 0.1
0.2 0.15 0.1
0.2 0.175 0.1
0.2 0.0125 0.1
0.2 0.0375 0.1
0.2 0.0625 0.1
0.2 0.0875 0.1
0.2 0.1125 0.1
0.2 0.1375 0.1
0.2 0.1625 0.1
0.2 0.1875 0.1
0.5 0.025 0.1
0.5 0.05 0.1
0.5 0.075 0.1
0.5 0.1 0.1
0.5 0.125 0.1
0.5 0.15 0.1
0.5 0.175 0.1
0.5 0.0125 0.1
0.5 0.0375 0.1
0.5 0.0625 0.1
0.5 0.0875 0.1
0.5 0.1125 0.1
0.5 0.1375 0.1
0.5 0.1625 0.1
0.5 0.1875 0.1
0.8 0.025 0.1
0.8 0.05 0.1
0.8 0.075 0.1
0.8 0.1 0.1
0.8 0.125 0.1
0.8 0.15 0.1
0.8 0.175 0.1
0.8 0.0125 0.1
0.8 0.0375 0.1
0.8 0.0625 0.1
0.8 0.0875 0.1
0.8 0.1125 0.1
0.8 0.1375 0.1
0.8 0.1625 0.1
0.8 0.1875 0.1
1 0.025 0.1
1 0.05 0.1
1 0.075 0.1
1 0.1 0.1
1 0.125 0.1
1 0.15 0.1
1 0.175 0.1
1 0.0125 0.1
1 0.0375 0.1
1 0.0625 0.1
1 0.0875 0.1
1 0.1125 0.1
1 0.1375 0.1
1 0.1625 0.1
1 0.1875 0.1
0.025 0.2 0.1
0.05 0.2 0.1
0.075 0.2 0.1
0.1 0.2 0.1
0.125 0.2 0.1
0.15 0.2 0.1
0.175 0.2 0.1
0.0125 0.2 0.1
0.0375 0.2 0.1
0.0625 0.2 0.1
0.0875 0.2 0.1
0.1125 0.2 0.1
0.1375 0.2 0.1
0.1625 0.2 0.1
0.1875 0.2 0.1
0.225 0.2 0.1
0.25 0.2 0.1
0.275 0.2 0.1
0.3 0.2 0.1
0.325 0.2 0.1
0.35 0.2 0.1
0.375 0.2 0.1
0.4 0.2 0.1
0.425 0.2 0.1
0.45 0.2 0.1
0.475 0.2 0.1
0.2125 0.2 0.1
0.2375 0.2 0.1
0.2625 0.2 0.1
0.2875 0.2 0.1
0.3125 0.2 0.1
0.3375 0.2 0.1
0.3625 0.2 0.1
0.3875 0.2 0.1
0.4125 0.2 0.1
0.4375 0.2 0.1
0.4625 0.2 0.1
0.4875 0.2 0.1
0.525 0.2 0.1
0.55 0.2 0.1
0.575 0.2 0.1
0.6 0.2 0.1
0.625 0.2 0.1
0.65 0.2 0.1
0.675 0.2 0.1
0.7 0.2 0.1
0.725 0.2 0.1
0.75 0.2 0.1
0.775 0.2 0.1
0.5125 0.2 0.1
0.5375 0.2 0.1
0.5625 0.2 0.1
0.5875 0.2 0.1
0.6125 0.2 0.1
0.6375 0.2 0.1
0.6625 0.2 0.1
0.6875 0.2 0.1
0.7125 0.2 0.1
0.7375 0.2 0.1
0.7625 0.2 0.1
0.7875 0.2 0.1
0.825 0.2 0.1
0.85 0.2 0.1
0.875 0.2 0.1
0.9 0.2 0.1
0.925 0.2 0.1
0.95 0.2 0.1
0.975 0.2 0.1
0.8125 0.2 0.1
0.8375 0.2 0.1
0.8625 0.2 0.1
0.8875 0.2 0.1
0.9125 0.2 0.1
0.9375 0.2 0.1
0.9625 0.2 0.1
0.9875 0.2 0.1
0 0.225 0.1
0 0.25 0.1
0 0.275 0.1
0 0.3 0.1
0 0.325 0.1
0 0.35 0.1
0 0.375 0.1
0 0.4 0.1
0 0.425 0.1
0 0.45 0.1
0 0.475 0.1
0 0.2125 0.1
0 0.2375 0.1
0 0.2625 0.1
0 0.2875 0.1
0 0.3125 0.1
0 0.3375 0.1
0 0.3625 0.1
0 0.3875 0.1
0 0.4125 0.1
0 0.4375 0.1
0 0.4625 0.1
0 0.4875 0.1
0.2 0.225 0.1
0.2 0.25 0.1
0.2 0.275 0.1
0.2 0.3 0.1
0.2 0.325 0.1
0.2 0.35 0.1
0.2 0.375 0.1
0.2 0.4 0.1
0.2 0.425 0.1
0.2 0.45 0.1
0.2 0.475 0.1
0.2 0.2125 0.1
0.2 0.2375 0.1
0.2 0.2625 0.1
0.2 0.2875 0.1
0.2 0.3125 0.1
0.2 0.3375 0.1
0.2 0.3625 0.1
0.2 0.3875 0.1
0.2 0.4125 0.1
0.2 0.4375 0.1
0.2 0.4625 0.1
0.2 0.4875 0.1
0.8 0.225 0.1
0.8 0.25 0.1
0.8 0.275 0.1
0.8 0.3 0.1
0.8 0.325 0.1
0.8 0.35 0.1
0.8 0.375 0.1
0.8 0.4 0.1
0.8 0.425 0.1
0.8 0.45 0.1
0.8 0.475 0.1
0.8 0.2125 0.1
0.8 0.2375 0.1
0.8 0.2625 0.1
0.8 0.2875 0.1
0.8 0.3125 0.1
0.8 0.3375 0.1
0.8 0.3625 0.1
0.8 0.3875 0.1
0.8 0.4125 0.1
0.8 0.4375 0.1
0.8 0.4625 0.1
0.8 0.4875 0.1
1 0.225 0.1
1 0.25 0.1
1 0.275 0.1
1 0.3 0.1
1 0.325 0.1
1 0.35 0.1
1 0.375 0.1
1 0.4 0.1
1 0.425 0.1
1 0.45 0.1
1 0.475 0.1
1 0.2125 0.1
1 0.2375 0.1
1 0.2625 0.1
1 0.2875 0.1
1 0.3125 0.1
1 0.3375 0.1
1 0.3625 0.1
1 0.3875 0.1
1 0.4125 0.1
1 0.4375 0.1
1 0.4625 0.1
1 0.4875 0.1
0.025 0.5 0.1
0.05 0.5 0.1
0.075 0.5 0.1
0.1 0.5 0.1
0.125 0.5 0.1
0.15 0.5 0.1
0.175 0.5 0.1
0.0125 0.5 0.1
0.0375 0.5 0.1
0.0625 0.5 0.1
0.0875 0.5 0.1
0.1125 0.5 0.1
0.1375 0.5 0.1
0.1625 0.5 0.1
0.1875 0.5 0.1
0.825 0.5 0.1
0.85 0.5 0.1
0.875 0.5 0.1
0.9 0.5 0.1
0.925 0.5 0.1
0.95 0.5 0.1
0.975 0.5 0.1
0.8125 0.5 0.1
0.8375 0.5 0.1
0.8625 0.5 0.1
0.8875 0.5 0.1
0.9125 0.5 0.1
0.9375 0.5 0.1
0.9625 0.5 0.1
0.9875 0.5 0.1
0 0.525 0.1
0 0.55 0.1
0 0.575 0.1
0 0.6 0.1
0 0.625 0.1
0 0.65 0.1
0 0.675 0.1
0 0.7 0.1
0 0.725 0.1
0 0.75 0.1
0 0.775 0.1
0 0.5125 0.1
0 0.5375 0.1
0 0.5625 0.1
0 0.5875 0.1
0 0.6125 0.1
0 0.6375 0.1
0 0.6625 0.1
0 0.6875 0.1
0 0.7125 0.1
0 0.7375 0.1
0 0.7625 0.1
0 0.7875 0.1
0.2 0.525 0.1
0.2 0.55 0.1
0.2 0.575 0.1
0.2 0.6 0.1
0.2 0.625 0.1
0.2 0.65 0.1
0.2 0.675 0.1
0.2 0.7 0.1
0.2 0.725 0.1
0.2 0.75 0.1
0.2 0.775 0.1
0.2 0.5125 0.1
0.2 0.5375 0.1
0.2 0.5625 0.1
0.2 0.5875 0.1
0.2 0.6125 0.1
0.2 0.6375 0.1
0.2 0.6625 0.1
0.2 0.6875 0.1
0.2 0.7125 0.1
0.2 0.7375 0.1
0.2 0.7625 0.1
0.2 0.7875 0.1
0.8 0.525 0.1
0.8 0.55 0.1
0.8 0.575 0.1
0.8 0.6 0.1
0.8 0.625 0.1
0.8 0.65 0.1
0.8 0.675 0.1
0.8 0.7 0.1
0.8 0.725 0.1
0.8 0.75 0.1
0.8 0.775 0.1
0.8 0.5125 0.1
0.8 0.5375 0.1
0.8 0.5625 0.1
0.8 0.5875 0.1
0.8 0.6125 0.1
0.8 0.6375 0.1
0.8 0.6625 0.1
0.8 0.6875 0.1
0.8 0.7125 0.1
0.8 0.7375 0.1
0.8 0.7625 0.1
0.8 0.7875 0.1
1 0.525 0.1
1 0.55 0.1
1 0.575 0.1
1 0.6 0.1
1 0.625 0.1
1 0.65 0.1
1 0.675 0.1
1 0.7 0.1
1 0.725 0.1
1 0.75 0.1
1 0.775 0.1
1 0.5125 0.1
1 0.5375 0.1
1 0.5625 0.1
1 0.5875 0.1
1 0.6125 0.1
1 0.6375 0.1
1 0.6625 0.1
1 0.6875 0.1
1 0.7125 0.1
1 0.7375 0.1
1 0.7625 0.1
1 0.7875 0.1
0.025 0.8 0.1
0.05 0.8 0.1
0.075 0.8 0.1
0.1 0.8 0.1
0.125 0.8 0.1
0.15 0.8 0.1
0.175 0.8 0.1
0.0125 0.8 0.1
0.0375 0.8 0.1
0.0625 0.8 0.1
0.0875 0.8 0.1
0.1125 0.8 0.1
0.1375 0.8 0.1
0.1625 0.8 0.1
0.1875 0.8 0.1
0.225 0.8 0.1
0.25 0.8 0.1
0.275 0.8 0.1
0.3 0.8 0.1
0.325 0.8 0.1
0.35 0.8 0.1
0.375 0.8 0.1
0.4 0.8 0.1
0.425 0.8 0.1
0.45 0.8 0.1
0.475 0.8 0.1
0.2125 0.8 0.1
0.2375 0.8 0.1
0.2625 0.8 0.1
0.2875 0.8 0.1
0.3125 0.8 0.1
0.3375 0.8 0.1
0.3625 0.8 0.1
0.3875 0.8 0.1
0.4125 0.8 0.1
0.4375 0.8 0.1
0.4625 0.8 0.1
0.4875 0.8 0.1
0.525 0.8 0.1
0.55 0.8 0.1
0.575 0.8 0.1
0.6 0.8 0.1
0.625 0.8 0.1
0.65 0.8 0.1
0.675 0.8 0.1
0.7 0.8 0.1
0.725 0.8 0.1
0.75 0.8 0.1
0.775 0.8 0.1
0.5125 0.8 0.1
0.5375 0.8 0.1
0.5625 0.8 0.1
0.5875 0.8 0.1
0.6125 0.8 0.1
0.6375 0.8 0.1
0.6625 0.8 0.1
0.6875 0.8 0.1
0.7125 0.8 0.1
0.7375 0.8 0.1
0.7625 0.8 0.1
0.7875 0.8 0.1
0.825 0.8 0.1
0.85 0.8 0.1
0.875 0.8 0.1
0.9 0.8 0.1
0.925 0.8 0.1
0.95 0.8 0.1
0.975 0.8 0.1
0.8125 0.8 0.1
0.8375 0.8 0.1
0.8625 0.8 0.1
0.8875 0.8 0.1
0.9125 0.8 0.1
0.9375 0.8 0.1
0.9625 0.8 0.1
0.9875 0.8 0.1
0 0.825 0.1
0 0.85 0.1
0 0.875 0.1
0 0.9 0.1
0 0.925 0.1
0 0.95 0.1
0 0.975 0.1
0 0.8125 0.1
0 0.8375 0.1
0 0.8625 0.1
0 0.8875 0.1
0 0.9125 0.1
0 0.9375 0.1
0 0.9625 0.1
0 0.9875 0.1
0.2 0.825 0.1
0.2 0.85 0.1
0.2 0.875 0.1
0.2 0.9 0.1
0.2 0.925 0.1
0.2 0.95 0.1
0.2 0.975 0.1
0.2 0.8125 0.1
0.2 0.8375 0.1
0.2 0.8625 0.1
0.2 0.8875 0.1
0.2 0.9125 0.1
0.2 0.9375 0.1
0.2 0.9625 0.1
0.2 0.9875 0.1
0.5 0.825 0.1
0.5 0.85 0.1
0.5 0.875 0.1
0.5 0.9 0.1
0.5 0.925 0.1
0.5 0.95 0.1
0.5 0.975 0.1
0.5 0.8125 0.1
0.5 0.8375 0.1
0.5 0.8625 0.1
0.5 0.8875 0.1
0.5 0.9125 0.1
0.5 0.9375 0.1
0.5 0.9625 0.1
0.5 0.9875 0.1
0.8 0.825 0.1
0.8 0.85 0.1
0.8 0.875 0.1
0.8 0.9 0.1
0.8 0.925 0.1
0.8 0.95 0.1
0.8 0.975 0.1
0.8 0.8125 0.1
0.8 0.8375 0.1
0.8 0.8625 0.1
0.8 0.8875 0.1
0.8 0.9125 0.1
0.8 0.9375 0.1
0.8 0.9625 0.1
0.8 0.9875 0.1
1 0.825 0.1
1 0.85 0.1
1 0.875 0.1
1 0.9 0.1
1 0.925 0.1
1 0.95 0.1
1 0.975 0.1
1 0.8125 0.1
1 0.8375 0.1
1 0.8625 0.1
1 0.8875 0.1
1 0.9125 0.1
1 0.9375 0.1
1 0.9625 0.1
1 0.9875 0.1
0.025 1 0.1
0.05 1 0.1
0.075 1 0.1
0.1 1 0.1
0.125 1 0.1
0.15 1 0.1
0.175 1 0.1
0.0125 1 0.1
0.0375 1 0.1
0.0625 1 0.1
0.0875 1 0.1
0.1125 1 0.1
0.1375 1 0.1
0.1625 1 0.1
0.1875 1 0.1
0.225 1 0.1
0.25 1 0.1
0.275 1 0.1
0.3 1 0.1
0.325 1 0.1
0.35 1 0.1
0.375 1 0.1
0.4 1 0.1
0.425 1 0.1
0.45 1 0.1
0.475 1 0.1
0.2125 1 0.1
0.2375 1 0.1
0.2625 1 0.1
0.2875 1 0.1
0.3125 1 0.1
0.3375 1 0.1
0.3625 1 0.1
0.3875 1 0.1
0.4125 1 0.1
0.4375 1 0.1
0.4625 1 0.1
0.4875 1 0.1
0.525 1 0.1
0.55 1 0.1
0.575 1 0.1
0.6 1 0.1
0.625 1 0.1
0.65 1 0.1
0.675 1 0.1
0.7 1 0.1
0.725 1 0.1
0.75 1 0.1
0.775 1 0.1
0.5125 1 0.1
0.5375 1 0.1
0.5625 1 0.1
0.5875 1 0.1
0.6125 1 0.1
0.6375 1 0.1
0.6625 1 0.1
0.6875 1 0.1
0.7125 1 0.1
0.7375 1 0.1
0.7625 1 0.1
0.7875 1 0.1
0.825 1 0.1
0.85 1 0.1
0.875 1 0.1
0.9 1 0.1
0.925 1 0.1
0.95 1 0.1
0.975 1 0.1
0.8125 1 0.1
0.8375 1 0.1
0.8625 1 0.1
0.8875 1 0.1
0.9125 1 0.1
0.9375 1 0.1
0.9625 1 0.1
0.9875 1 0.1
0.025 0.025 0.1
0.025 0.05 0.1
0.025 0.075 0.1
0.025 0.1 0.1
0.025 0.125 0.1
0.025 0.15 0.1
0.025 0.175 0.1
0.05 0.025 0.1
0.05 0.05 0.1
0.05 0.075 0.1
0.05 0.1 0.1
0.05 0.125 0.1
0.05 0.15 0.1
0.05 0.175 0.1
0.075 0.025 0.1
0.075 0.05 0.1
0.075 0.075 0.1
0.075 0.1 0.1
0.075 0.125 0.1
0.075 0.15 0.1
0.075 0.175 0.1
0.1 0.025 0.1
0.1 0.05 0.1
0.1 0.075 0.1
0.1 0.1 0.1
0.1 0.125 0.1
0.1 0.15 0.1
0.1 0.175 0.1
0.125 0.025 0.1
0.125 0.05 0.1
0.125 0.075 0.1
0.125 0.1 0.1
0.125 0.125 0.1
0.125 0.15 0.1
0.125 0.175 0.1
0.15 0.025 0.1
0.15 0.05 0.1
0.15 0.075 0.1
0.15 0.1 0.1
0.15 0.125 0.1
0.15 0.15 0.1
0.15 0.175 0.1
[...]
    <PointData>
      <DataArray type="Float64" NumberOfComponents="3" Name="Velocity" format="ascii">
0 0 0
0 0 0
0 0 0
0 0 0
0 0 0
0 0 0
0.0296364 0.0350292 0
0.043239 -0.000325955 0
0.0348686 -0.0272642 0
0 0 0
0 0 0
0.0511815 0.013687 0
0.0517402 -0.0103271 0
0 0 0
0 0 0
0.0144596 -0.00338298 0
0.0268404 -0.000880125 0
0.0155404 0.00391526 0
0 0 0
0 0 0
1 0 0
1 0 0
1 0 0
0 0 0
0 0 0
0 0 0
0 0 0
0 0 0
0 0 0
0 0 0
0 0 0
0 0 0
0 0 0
0 0 0
0 0 0
0 0 0
0 0 0
0 0 0
0 0 0
0 0 0
0 0 0
0 0 0
0 0 0
0 0 0
0 0 0
0 0 0
0 0 0
0 0 0
0 0 0
0 0 0
0 0 0
0 0 0
0 0 0
0 0 0
0 0 0
0 0 0
0 0 0
0 0 0
0 0 0
0 0 0
0 0 0
0 0 0
0 0 0
0 0 0
0 0 0
0 0 0
0 0 0
0 0 0
0 0 0
0 0 0
0 0 0
0 0 0
0 0 0
0 0 0
0 0 0
0 0 0
0 0 0
0 0 0
0 0 0
0 0 0
0 0 0
0 0 0
0 0 0
0 0 0
0 0 0
0 0 0
0 0 0
0 0 0
0 0 0
0 0 0
0 0 0
0 0 0
0 0 0
0 0 0
0 0 0
0 0 0
0 0 0
0 0 0
0 0 0
0 0 0
0 0 0
0 0 0
0 0 0
0 0 0
0 0 0
0 0 0
0 0 0
0 0 0
0 0 0
0 0 0
0 0 0
0 0 0
0 0 0
0 0 0
0 0 0
-0.199711 0.0153293 0
-0.282004 0.0423361 0
-0.253172 0.066296 0
-0.0849653 0.0551956 0
-0.0258801 0.0233256 0
0.00217699 0.040408 0
0.0215436 0.0390653 0
-0.116855 0.00513061 0
-0.254731 0.0282519 0
-0.282054 0.0560051 0
-0.190399 0.0672167 0
-0.0437053 0.0254298 0
-0.00101485 0.0453864 0
0.015943 0.0387828 0
0.0304421 0.0361135 0
-0.278624 0.00036161 0
-0.379734 0.000520991 0
-0.313378 0.000509698 0
-0.0716983 0.00107621 0
-0.0112727 0.000839852 0
0.0148577 0.00055606 0
0.0322594 0.00042514 0
-0.163969 8.58944e-05 0
-0.350393 0.000550238 0
-0.367591 0.0004159 0
-0.215933 0.000675616 0
-0.00743861 0.00101346 0
0.00311377 0.000659868 0
0.0240621 0.000498755 0
0.0378337 0.000169965 0
-0.217429 -0.0159371 0
-0.30414 -0.0438235 0
-0.26969 -0.0670624 0
-0.0846878 -0.0567965 0
-0.0155091 -0.036859 0
0.0109971 -0.0353523 0
0.0285993 -0.0312372 0
-0.127544 -0.00549045 0
-0.275716 -0.029498 0
-0.301966 -0.0571752 0
-0.202036 -0.0714708 0
-0.0106827 -0.037726 0
-0.000834725 -0.0369068 0
0.0193666 -0.0342264 0
0.0366992 -0.0263874 0
0 0 0
0 0 0
0 0 0
0 0 0
0 0 0
0 0 0
0 0 0
0 0 0
0 0 0
0 0 0
0 0 0
0 0 0
0 0 0
0 0 0
0 0 0
-0.00507537 0.155635 0
-0.0131765 0.226179 0
-0.0196744 0.221478 0
-0.00558193 0.115412 0
0.015008 0.0608963 0
0.0239887 0.0594677 0
0.0273872 0.048685 0
-0.00164352 0.0896812 0
-0.00910779 0.200015 0
-0.0174694 0.231956 0
-0.0167063 0.182032 0
0.00153143 0.0717021 0
0.0316217 0.0688735 0
0.0252466 0.054044 0
0.0269757 0.0455944 0
0.0338586 0.0310484 0
0.0378696 0.0250181 0
0.0389738 0.0202148 0
0.0395898 0.0163644 0
0.0403492 0.0131773 0
0.0411098 0.0106124 0
0.0416928 0.00832043 0
0.0421262 0.00626625 0
0.0424816 0.00440954 0
0.042799 0.00270794 0
0.0430529 0.00116384 0
0.0364159 0.0344807 0
0.0378017 0.0286465 0
0.0388156 0.0233338 0
0.0391828 0.0190654 0
0.0397928 0.0155791 0
0.040575 0.0128437 0
0.0412615 0.0104545 0
0.04177 0.00830112 0
0.042141 0.00637092 0
0.0424717 0.00460803 0
0.042757 0.00298883 0
0.0429826 0.00146817 0
0.043355 -0.00178412 0
0.0434227 -0.0032282 0
0.043458 -0.00475845 0
0.0434723 -0.00637147 0
0.0433958 -0.00808137 0
0.0432043 -0.00994142 0
0.0428723 -0.0119958 0
0.0426149 -0.0145884 0
0.0423798 -0.0177824 0
0.0420337 -0.021992 0
0.0385756 -0.0272073 0
0.0431399 -2.80554e-05 0
0.0432307 -0.00150192 0
0.0432724 -0.00302246 0
0.0432877 -0.00459248 0
0.0432565 -0.00626052 0
0.0431067 -0.00807371 0
0.0428305 -0.0100325 0
0.0425225 -0.0122642 0
0.0423124 -0.0150767 0
0.0421436 -0.0185276 0
0.041103 -0.0226792 0
0.0401479 -0.0266078 0
0.0286065 -0.0447403 0
0.029787 -0.0545304 0
0.0294556 -0.0716329 0
0.0124076 -0.11569 0
-0.0144613 -0.226698 0
-0.0131943 -0.23492 0
-0.00555511 -0.162234 0
0.028139 -0.0399207 0
0.0302322 -0.0482605 0
0.0293319 -0.0625364 0
0.0341864 -0.0643114 0
-0.00757234 -0.189317 0
-0.0153061 -0.240952 0
-0.0094501 -0.208567 0
-0.00219796 -0.0935077 0
0 0 0
0 0 0
0 0 0
0 0 0
0 0 0
0 0 0
0 0 0
0 0 0
0 0 0
0 0 0
0 0 0
0 0 0
0 0 0
0 0 0
0 0 0
0 0 0
0 0 0
0 0 0
0 0 0
0 0 0
0 0 0
0 0 0
0 0 0
0.0397117 0.0347985 0
0.0458629 0.0342248 0
0.04985 0.0319689 0
0.0524067 0.0296646 0
0.0538928 0.027604 0
0.0541727 0.0256192 0
0.0541248 0.0236641 0
0.0538736 0.0216167 0
0.0533903 0.0195791 0
0.0527674 0.0175786 0
0.0520076 0.0156299 0
0.0367232 0.0386916 0
0.043264 0.035595 0
0.0478406 0.0333801 0
0.0512104 0.0307803 0
0.0532671 0.0285431 0
0.0540971 0.0265774 0
0.0542123 0.0246163 0
0.0540553 0.0226071 0
0.0536228 0.0205753 0
0.0530484 0.0185621 0
0.0523495 0.0165939 0
0.051546 0.0146533 0
0.045291 -0.0272359 0
0.0485981 -0.0279241 0
0.0515261 -0.0260981 0
0.0534084 -0.0242603 0
0.0544024 -0.0222154 0
0.0549405 -0.0202833 0
0.0549115 -0.0185685 0
0.054389 -0.0169904 0
0.0538113 -0.0153096 0
0.0531858 -0.0136317 0
0.0524877 -0.0119738 0
0.0370287 -0.0334315 0
0.04575 -0.0289337 0
0.050074 -0.0269628 0
0.0526839 -0.0249871 0
0.0540269 -0.0230802 0
0.0545996 -0.0211466 0
0.0547357 -0.019406 0
0.0545696 -0.0176402 0
0.0541002 -0.0160992 0
0.0535196 -0.0144517 0
0.052852 -0.0128014 0
0.0521149 -0.0111687 0
0 0 0
0 0 0
0 0 0
0 0 0
0 0 0
0 0 0
0 0 0
0 0 0
0 0 0
0 0 0
0 0 0
0 0 0
0 0 0
0 0 0
0 0 0
0 0 0
0 0 0
0 0 0
0 0 0
0 0 0
0 0 0
0 0 0
0 0 0
0.00533687 0.0748697 0
0.0153416 0.104963 0
0.0273988 0.0930822 0
0.0389839 0.0376493 0
0.0441078 0.0260063 0
0.0454745 0.0197624 0
0.0480117 0.0161403 0
0.00202263 0.0433559 0
0.00993553 0.0952716 0
0.0213169 0.104225 0
0.0323392 0.0711123 0
0.0440943 0.0234811 0
0.0444225 0.0226113 0
0.0467239 0.0179479 0
0.0494586 0.0148024 0
0.0489726 -0.0123355 0
0.0468491 -0.0159624 0
0.0454873 -0.0225678 0
0.0422306 -0.0305717 0
0.0314965 -0.0894107 0
0.0186599 -0.103492 0
0.00673757 -0.0746077 0
0.0501648 -0.0113206 0
0.047826 -0.0140735 0
0.0460792 -0.0182235 0
0.0457273 -0.019919 0
0.036291 -0.0660431 0
0.0252224 -0.101844 0
0.0123163 -0.0945001 0
0.00256565 -0.0433493 0
0 0 0
0 0 0
0 0 0
0 0 0
0 0 0
0 0 0
0 0 0
0 0 0
0 0 0
0 0 0
0 0 0
0 0 0
0 0 0
0 0 0
0 0 0
0 0 0
0 0 0
0 0 0
0 0 0
0 0 0
0 0 0
0 0 0
0 0 0
0.0503144 0.0117387 0
0.0493916 0.00978914 0
0.0483755 0.00782285 0
0.0472637 0.00583338 0
0.0459407 0.00383769 0
0.0442881 0.00186123 0
0.0422847 -0.000122123 0
0.0393553 -0.00230594 0
0.0353792 -0.00472057 0
0.0302841 -0.00709557 0
0.0246838 -0.0065777 0
0.0506934 0.0127103 0
0.0498006 0.0107621 0
0.0488295 0.00880588 0
0.047764 0.00683146 0
0.046573 0.00483434 0
0.0450986 0.00284314 0
0.0432948 0.000865615 0
0.0409146 -0.00119058 0
0.0374787 -0.00348976 0
0.032965 -0.00602513 0
0.0268914 -0.0080946 0
0.0156553 -0.0128817 0
0.0509586 -0.00869401 0
0.0501334 -0.0070653 0
0.0492199 -0.00540867 0
0.0482233 -0.00372524 0
0.047023 -0.0020227 0
0.0455075 -0.000295341 0
0.0436956 0.00145852 0
0.0410563 0.00343969 0
0.0372037 0.0056428 0
0.0323871 0.00727141 0
0.0237928 0.0094035 0
0.0513526 -0.00953356 0
0.0505518 -0.00790448 0
0.0496805 -0.00625931 0
0.048723 -0.00458703 0
0.0476527 -0.00288872 0
0.0463023 -0.00116621 0
0.044632 0.000571008 0
0.0424829 0.00245271 0
0.0394125 0.00451594 0
0.0349261 0.00694832 0
0.0298371 0.00986689 0
0.0240752 0.00938271 0
0 0 0
0 0 0
0 0 0
0 0 0
0 0 0
0 0 0
0 0 0
0 0 0
0 0 0
0 0 0
0 0 0
0 0 0
0 0 0
0 0 0
0 0 0
0 0 0
0 0 0
0 0 0
0 0 0
0 0 0
0 0 0
0 0 0
0 0 0
-0.00364752 0.00999648 0
-0.00777508 0.0114443 0
-0.00827876 0.000832837 0
0.00359176 -0.0209103 0
0.00559602 -0.0245953 0
0.00608403 -0.0200394 0
0.00797241 -0.0173796 0
-0.00157683 0.00559129 0
-0.00593168 0.0121944 0
-0.00855187 0.00750545 0
-0.00395032 -0.00961331 0
0.0109975 -0.023725 0
0.00583392 -0.022281 0
0.00751174 -0.0186995 0
0.00373593 -0.0188037 0
0.0167267 -0.0089381 0
0.0217835 -0.00584098 0
0.0226584 -0.00390256 0
0.0231933 -0.00266298 0
0.0239106 -0.001889 0
0.0247332 -0.00146596 0
0.025319 -0.0011542 0
0.0258277 -0.000961195 0
0.0261746 -0.000865529 0
0.0265096 -0.000833404 0
0.026705 -0.000843597 0
0.0199593 -0.00576025 0
0.0204861 -0.00526273 0
0.0220583 -0.00344073 0
0.0226365 -0.00205583 0
0.0232688 -0.00116108 0
0.0240525 -0.000583097 0
0.0247891 -0.000191862 0
0.0253489 4.17724e-05 0
0.0257984 0.000286796 0
0.0261221 0.000396685 0
0.0263823 0.000400479 0
0.0265904 0.000312698 0
0.0269647 -0.000992854 0
0.0269573 -0.000988737 0
0.0269028 -0.000961793 0
0.0268028 -0.00087104 0
0.0266 -0.000699434 0
0.0262627 -0.000414941 0
0.0257806 -3.54403e-06 0
0.0254115 0.000811995 0
0.0252618 0.0019455 0
0.0243152 0.00395866 0
0.0194568 0.0070705 0
0.0267029 0.000392243 0
0.0266891 0.000302144 0
0.0266744 0.000307639 0
0.026611 0.000414127 0
0.0264717 0.000612912 0
0.0262072 0.000916586 0
0.0257915 0.00130841 0
0.0253441 0.00191286 0
0.0250038 0.00292441 0
0.0247875 0.00456586 0
0.0235751 0.00606764 0
0.0225496 0.00869582 0
0.0116467 0.0162034 0
0.00988943 0.0171857 0
-0.00841921 0.00297211 0
-0.00538323 0.0273766 0
-0.0115926 0.0121359 0
-0.00884478 0.00280396 0
-0.00335505 0.000744139 0
0.0108287 0.0170401 0
0.00899326 0.0181744 0
0.0191114 0.0264257 0
-0.0151445 0.0114101 0
-0.0102876 0.0166025 0
-0.0110211 0.00554981 0
-0.00600209 0.000562542 0
-0.00102468 0.000600755 0
0 0 0
0 0 0
0 0 0
0 0 0
0 0 0
0 0 0
0 0 0
0 0 0
0 0 0
0 0 0
0 0 0
0 0 0
0 0 0
0 0 0
0 0 0
0.00443457 -0.0100011 0
-0.0150034 -0.0135044 0
-0.0400119 -0.0146451 0
-0.108862 -0.0396453 0
-0.234678 -0.057521 0
-0.0852407 -0.0393343 0
0.315285 -0.014566 0
0.0152333 -0.00237171 0
-0.00511063 -0.0124597 0
-0.0273413 -0.0146242 0
-0.0340693 -0.0164363 0
-0.21282 -0.0592405 0
-0.19048 -0.0507165 0
0.0828353 -0.0266896 0
0.618699 -0.00509166 0
0.0141752 -0.000310151 0
-0.00451464 -0.000270674 0
-0.031981 -0.000482213 0
-0.0822331 -0.000271306 0
-0.244072 -0.000300954 0
-0.129014 -0.000168816 0
0.273008 -5.70048e-05 0
0.0204332 -0.00033107 0
0.00516549 -0.000299976 0
-0.0173502 -0.00035567 0
-0.0265851 -0.000545583 0
-0.198457 -0.000285514 0
-0.221145 -0.00023881 0
0.034396 -0.000117845 0
0.59234 -2.39125e-05 0
0.00766995 0.00986383 0
-0.0151686 0.015826 0
-0.0519549 -0.0109477 0
-0.097045 0.0334626 0
-0.218218 0.0605289 0
-0.0679783 0.0422667 0
0.326396 0.0160699 0
0.0159025 0.00712295 0
-0.00119163 0.0106402 0
-0.0184517 0.0184115 0
-0.0629588 -0.00585509 0
-0.19731 0.0546985 0
-0.172929 0.0539844 0
0.097147 0.0290056 0
0.624745 0.00546209 0
0 0 0
0 0 0
0 0 0
0 0 0
0 0 0
0 0 0
0 0 0
0 0 0
0 0 0
0 0 0
0 0 0
0 0 0
0 0 0
0 0 0
0 0 0
1 0 0
1 0 0
1 0 0
1 0 0
1 0 0
1 0 0
1 0 0
1 0 0
1 0 0
1 0 0
1 0 0
1 0 0
1 0 0
1 0 0
1 0 0
1 0 0
1 0 0
1 0 0
1 0 0
1 0 0
1 0 0
1 0 0
1 0 0
1 0 0
1 0 0
1 0 0
1 0 0
1 0 0
1 0 0
1 0 0
1 0 0
1 0 0
1 0 0
1 0 0
1 0 0
1 0 0
1 0 0
1 0 0
1 0 0
1 0 0
1 0 0
1 0 0
1 0 0
1 0 0
1 0 0
1 0 0
1 0 0
1 0 0
1 0 0
1 0 0
1 0 0
1 0 0
1 0 0
1 0 0
1 0 0
1 0 0
1 0 0
1 0 0
1 0 0
1 0 0
1 0 0
1 0 0
1 0 0
1 0 0
1 0 0
1 0 0
1 0 0
1 0 0
1 0 0
1 0 0
1 0 0
1 0 0
1 0 0
1 0 0
1 0 0
1 0 0
-0.00886425 0.00801018 0
-0.0165168 0.0265325 0
-0.0201289 0.0512788 0
-0.0204074 0.0777446 0
-0.0188053 0.102859 0
-0.0161346 0.12519 0
-0.0115883 0.143438 0
-0.0287448 0.0147205 0
-0.0486068 0.0452466 0
-0.0573609 0.0833727 0
-0.0569989 0.122274 0
-0.0512869 0.156968 0
-0.0441828 0.186223 0
-0.0325742 0.209641 0
-0.0556464 0.0184954 0
-0.089543 0.0552745 0
-0.102786 0.0991998 0
-0.0991653 0.141049 0
-0.0846155 0.173113 0
-0.0705652 0.193281 0
-0.0590764 0.207528 0
-0.0859636 0.0197798 0
-0.134176 0.0581857 0
-0.14997 0.101911 0
-0.138219 0.138927 0
-0.112162 0.158531 0
-0.0775369 0.154193 0
-0.087724 0.133998 0
-0.116925 0.0193944 0
-0.178067 0.0558061 0
-0.193224 0.0941712 0
-0.170191 0.119167 0
-0.122372 0.106295 0
-0.0293573 0.0914444 0
-0.018285 0.0729644 0
-0.14664 0.0183252 0
-0.217491 0.0506149 0
-0.225066 0.0778967 0
-0.185513 0.0854988 0
-0.0416947 0.0688125 0
-0.0122884 0.0419903 0
0.0101715 0.063049 0
-0.17427 0.0172972 0
-0.251205 0.0470173 0
-0.240985 0.0656477 0
-0.162361 0.0352015 0
-0.0313898 0.0257096 0
-0.00725718 0.0496994 0
0.0155491 0.0462694 0
-0.00534074 0.00247573 0
-0.00177506 0.00139275 0
-0.00296002 0.00424504 0
-0.0134575 0.016233 0
-0.00469583 0.00859323 0
-0.00583729 0.0143281 0
-0.0189737 0.0384716 0
-0.00675824 0.0210383 0
-0.00717996 0.0283868 0
-0.0206793 0.0645601 0
-0.00739453 0.0359938 0
-0.00729886 0.0436509 0
-0.0197856 0.0906019 0
-0.00708319 0.0511172 0
-0.00673092 0.058336 0
-0.0175346 0.114392 0
-0.00624947 0.0651652 0
-0.00570665 0.0716173 0
-0.0139688 0.135005 0
-0.00490485 0.0774411 0
-0.0039552 0.0825677 0
-0.00861144 0.150589 0
-0.00286587 0.0867303 0
-0.0165694 0.00483423 0
-0.0103205 0.00386859 0
-0.0177876 0.0119145 0
-0.0402737 0.0286049 0
-0.0255178 0.023319 0
-0.031128 0.0372223 0
-0.0544252 0.0638656 0
-0.0351969 0.0529672 0
-0.0372753 0.0697129 0
-0.0582367 0.103129 0
-0.0380518 0.0868508 0
-0.0374418 0.103733 0
-0.0546327 0.140377 0
-0.0361212 0.119957 0
-0.0341481 0.135207 0
-0.0479056 0.172158 0
-0.0319086 0.149488 0
-0.0293771 0.162798 0
-0.0387911 0.198721 0
-0.0256855 0.174859 0
-0.0211274 0.185525 0
-0.0246979 0.219752 0
-0.0159085 0.194262 0
-0.0319157 0.00615959 0
-0.0238515 0.00569874 0
-0.0416486 0.0170828 0
-0.0754794 0.0353916 0
-0.0571337 0.0327857 0
-0.0683383 0.0514125 0
-0.0986896 0.076991 0
-0.0758638 0.0719329 0
-0.0794983 0.0932566 0
-0.102901 0.12099 0
-0.0801706 0.11445 0
-0.0779551 0.134599 0
-0.0927381 0.158657 0
-0.073909 0.153031 0
-0.0685487 0.169251 0
-0.0774892 0.184706 0
-0.0635563 0.18334 0
-0.0585558 0.195559 0
-0.06534 0.199625 0
-0.052585 0.207002 0
-0.0447757 0.218384 0
-0.0461872 0.218252 0
-0.0345267 0.227842 0
-0.0493918 0.00659912 0
-0.0404942 0.00651762 0
-0.0706485 0.0194543 0
-0.114613 0.0375768 0
-0.0948053 0.0370743 0
-0.111722 0.0576274 0
-0.145974 0.0801466 0
-0.122295 0.0798002 0
-0.12655 0.102197 0
-0.147355 0.12209 0
-0.125544 0.123557 0
-0.119602 0.142362 0
-0.12669 0.150851 0
-0.110584 0.158142 0
-0.0992227 0.170187 0
-0.0946439 0.161348 0
-0.088155 0.176942 0
-0.0780216 0.177875 0
-0.0797587 0.142072 0
-0.0754678 0.177965 0
-0.0748745 0.181238 0
-0.0721899 0.126269 0
-0.0592431 0.186291 0
-0.0673936 0.00647997 0
-0.0584043 0.00663036 0
-0.101585 0.0197837 0
-0.153967 0.0365232 0
-0.134471 0.0374673 0
-0.156511 0.057681 0
-0.191101 0.0756998 0
-0.169163 0.0788792 0
-0.172516 0.0995042 0
-0.185706 0.109654 0
-0.167842 0.117899 0
-0.155761 0.132099 0
-0.144984 0.119571 0
-0.139154 0.138566 0
-0.122309 0.137943 0
-0.0999121 0.0890896 0
-0.0986779 0.135945 0
-0.0666954 0.11942 0
-0.0124881 0.0795723 0
-0.0629465 0.0984071 0
-0.0757424 0.0804375 0
-0.0179127 0.0640498 0
-0.0700045 0.0686018 0
-0.0848855 0.00616917 0
-0.0762395 0.00636091 0
-0.132078 0.0189253 0
-0.190663 0.0339559 0
-0.172786 0.0354067 0
-0.19854 0.0535504 0
-0.228459 0.0663608 0
-0.211119 0.071288 0
-0.21087 0.0866825 0
-0.211132 0.0849684 0
-0.200317 0.0981609 0
-0.179504 0.103343 0
-0.13791 0.0720596 0
-0.139532 0.0960534 0
-0.0969524 0.0641792 0
-0.0265274 0.0486521 0
-0.0852466 0.0348356 0
-0.0172903 0.0529974 0
0.0225763 0.0641773 0
0.0312851 0.0742254 0
0.0180696 0.0720877 0
0.0240025 0.0610419 0
0.0271439 0.0727102 0
-0.101492 0.00583205 0
-0.0932851 0.00599679 0
-0.160715 0.0177293 0
-0.223996 0.0317889 0
-0.207657 0.0327808 0
-0.234793 0.0486041 0
-0.255773 0.0598651 0
-0.24322 0.0621999 0
-0.23454 0.0702981 0
-0.206785 0.0603045 0
-0.212911 0.0675401 0
-0.181469 0.0506564 0
-0.118411 0.00850334 0
-0.133458 0.0362427 0
-0.0325792 0.0481682 0
0.00600626 0.0523386 0
0.0146698 0.0687135 0
0.00437698 0.0629795 0
0.0112081 0.0486858 0
0.0103184 0.055864 0
0.0112873 0.0551497 0
0.023853 0.0475843 0
0.0214619 0.0535089 0
-0.109375 0.00552333 0
-0.187401 0.0163478 0
-0.239716 0.0302977 0
-0.266797 0.0451248 0
-0.268546 0.0585705 0
-0.245482 0.0664483 0
-0.195088 0.0618559 0
-0.130036 0.0283519 0
-0.0917728 -0.00395868 0
-0.030152 0.0211173 0
0.00216639 0.0521095 0
-0.00212642 0.0491004 0
0.0125652 0.0436834 0
0.0189355 0.0435736 0
0.0226462 0.0418337 0
-0.221245 0.0118333 0
-0.308408 0.0318449 0
-0.266929 0.0460509 0
-0.0667182 0.0368371 0
-0.0180651 0.0331354 0
0.00828435 0.0332524 0
0.0243172 0.0326734 0
-0.236667 0.00811379 0
-0.325981 0.0215533 0
-0.274587 0.0311784 0
-0.0698966 0.0307067 0
-0.0174116 0.0295416 0
0.00927466 0.0273598 0
0.0270871 0.0262179 0
-0.247334 0.0056285 0
-0.338796 0.0153237 0
-0.282719 0.023457 0
-0.0703691 0.025073 0
-0.0158565 0.0232912 0
0.0100599 0.0221766 0
0.0277109 0.021191 0
-0.255082 0.00416289 0
-0.348733 0.0115883 0
-0.289856 0.0183118 0
-0.0707001 0.0201872 0
-0.0148048 0.0188496 0
0.0105264 0.0177254 0
0.0282327 0.0171559 0
-0.260989 0.00324893 0
-0.356541 0.009134 0
-0.295688 0.0146456 0
-0.0710377 0.0164534 0
-0.0140023 0.0154158 0
0.0111977 0.0143844 0
0.028958 0.0139186 0
-0.265625 0.00260579 0
-0.362724 0.00734157 0
-0.30039 0.011867 0
-0.0713423 0.0136207 0
-0.0134767 0.0128435 0
0.011927 0.0119182 0
0.029767 0.0114473 0
-0.2693 0.0020958 0
-0.367629 0.00589516 0
-0.304128 0.0095451 0
-0.0715648 0.0110646 0
-0.0129862 0.0104852 0
0.0126304 0.00962251 0
0.0304259 0.00914994 0
-0.272191 0.00165556 0
-0.371466 0.00464999 0
-0.307016 0.00752236 0
-0.0716762 0.00874166 0
-0.0124402 0.008318 0
0.0132521 0.00738698 0
0.0309421 0.00704258 0
-0.274427 0.00126882 0
-0.374416 0.00353581 0
-0.309248 0.00570731 0
-0.071705 0.00662163 0
-0.0118949 0.0062182 0
0.0137303 0.0053863 0
0.0313858 0.0051488 0
-0.276165 0.00088957 0
-0.376689 0.00249162 0
-0.310955 0.0039779 0
-0.0716904 0.00464672 0
-0.0115929 0.00425428 0
0.0140991 0.00362507 0
0.0317378 0.00344186 0
-0.277493 0.00063246 0
-0.378298 0.00154598 0
-0.312267 0.00216276 0
-0.0716742 0.00280877 0
-0.0114013 0.00246599 0
0.0144803 0.00204199 0
0.0320217 0.00190867 0
-0.129741 0.00395371 0
-0.123691 0.00455527 0
-0.211195 0.0136028 0
-0.280407 0.0216226 0
-0.268443 0.0251905 0
-0.296221 0.0375755 0
-0.304043 0.0406984 0
-0.294161 0.0488642 0
-0.261384 0.0563173 0
-0.191076 0.0434648 0
-0.190724 0.0571052 0
-0.0695732 0.0514104 0
-0.0101811 0.0340137 0
-0.00853136 0.045885 0
-0.0111874 0.0415723 0
-0.00275193 0.0348698 0
-0.00516841 0.0387976 0
0.00526236 0.0375223 0
0.0171052 0.0327942 0
0.0158824 0.0363131 0
0.0223898 0.0363718 0
0.0308549 0.0313072 0
0.0294273 0.0353867 0
-0.139074 0.00268368 0
-0.134822 0.0031886 0
-0.229685 0.00957413 0
-0.298651 0.014705 0
-0.290354 0.0176479 0
-0.31794 0.0258914 0
-0.318325 0.0273154 0
-0.311745 0.0328703 0
-0.270975 0.0369381 0
-0.19331 0.0318095 0
-0.191587 0.0366202 0
-0.0685807 0.0339018 0
-0.0150034 0.0300103 0
-0.0139917 0.0326288 0
-0.0187896 0.0322638 0
-0.00242256 0.028292 0
-0.00397589 0.0310504 0
0.00886647 0.030581 0
0.0186513 0.0267745 0
0.0180122 0.0298752 0
0.0259226 0.029228 0
0.0330731 0.025634 0
0.0322867 0.0286185 0
-0.145504 0.00183984 0
-0.142567 0.00215035 0
-0.2425 0.00650574 0
-0.311526 0.0103111 0
-0.305586 0.0120969 0
-0.332757 0.0179147 0
-0.329413 0.0199032 0
-0.324124 0.0230909 0
-0.278844 0.0268687 0
-0.19764 0.0249277 0
-0.195361 0.0282768 0
-0.0704007 0.0278005 0
-0.0135985 0.0242353 0
-0.0143784 0.0270805 0
-0.016471 0.0262257 0
-0.00132169 0.0227922 0
-0.00190306 0.0251074 0
0.00994356 0.0245103 0
0.019504 0.0216493 0
0.0193122 0.0240854 0
0.0275395 0.0235526 0
0.0337064 0.0207362 0
0.0334733 0.0232656 0
-0.150106 0.00135281 0
-0.14797 0.00153571 0
-0.251536 0.00466763 0
-0.321091 0.00770963 0
-0.316625 0.00877778 0
-0.343996 0.0131893 0
-0.338456 0.0152934 0
-0.334174 0.0173074 0
-0.286548 0.020593 0
-0.201822 0.0196955 0
-0.199765 0.0221871 0
-0.0708059 0.0223271 0
-0.0122289 0.0196629 0
-0.0127126 0.0220122 0
-0.0152073 0.0211921 0
-0.000567023 0.0183589 0
-0.00126024 0.0201989 0
0.0103839 0.0196179 0
0.0200413 0.0174189 0
0.0197998 0.0192176 0
0.0279008 0.0189127 0
0.0341557 0.0167764 0
0.0338794 0.0187778 0
-0.15358 0.00105545 0
-0.151945 0.00117394 0
-0.25827 0.00356177 0
-0.328465 0.00604253 0
-0.325001 0.00674179 0
-0.352792 0.0102187 0
-0.34572 0.0121483 0
-0.342292 0.013534 0
-0.293018 0.0162617 0
-0.205324 0.0158282 0
-0.203618 0.0176714 0
-0.0711408 0.0180203 0
-0.011171 0.0161488 0
-0.0115123 0.0179673 0
-0.0143692 0.0171919 0
0.000155181 0.0149333 0
-0.000486374 0.0162778 0
0.0109631 0.0157797 0
0.0207661 0.0141708 0
0.0204145 0.0154711 0
0.0285082 0.0152631 0
0.0347929 0.0135815 0
0.0344046 0.0151775 0
-0.156298 0.000848119 0
-0.155009 0.000936806 0