<?xml version="1.0"?>
<VTKFile type="UnstructuredGrid">
  <UnstructuredGrid>
  <Piece NumberOfPoints="3321"  NumberOfCells="1600">
    <Points>
      <DataArray type="Float64" NumberOfComponents="3" format="ascii">
0 0 0.1
1 0 0.1
1 0.5 0.1
0 0.5 0.1
0.025 0 0.1
0.05 0 0.1
0.075 0 0.1
0.1 0 0.1
0.125 0 0.1
0.15 0 0.1
0.175 0 0.1
0.2 0 0.1
0.225 0 0.1
0.25 0 0.1
0.275 0 0.1
0.3 0 0.1
0.325 0 0.1
0.35 0 0.1
0.375 0 0.1
0.4 0 0.1
0.425 0 0.1
0.45 0 0.1
0.475 0 0.1
0.5 0 0.1
0.525 0 0.1
0.55 0 0.1
0.575 0 0.1
0.6 0 0.1
0.625 0 0.1
0.65 0 0.1
0.675 0 0.1
0.7 0 0.1
0.725 0 0.1
0.75 0 0.1
0.775 0 0.1
0.8 0 0.1
0.825 0 0.1
0.85 0 0.1
0.875 0 0.1
0.9 0 0.1
0.925 0 0.1
0.95 0 0.1
0.975 0 0.1
0.0125 0 0.1
0.0375 0 0.1
0.0625 0 0.1
0.0875 0 0.1
0.1125 0 0.1
0.1375 0 0.1
0.1625 0 0.1
0.1875 0 0.1
0.2125 0 0.1
0.2375 0 0.1
0.2625 0 0.1
0.2875 0 0.1
0.3125 0 0.1
0.3375 0 0.1
0.3625 0 0.1
0.3875 0 0.1
0.4125 0 0.1
0.4375 0 0.1
0.4625 0 0.1
0.4875 0 0.1
0.5125 0 0.1
0.5375 0 0.1
0.5625 0 0.1
0.5875 0 0.1
0.6125 0 0.1
0.6375 0 0.1
0.6625 0 0.1
0.6875 0 0.1
0.7125 0 0.1
0.7375 0 0.1
0.7625 0 0.1
0.7875 0 0.1
0.8125 0 0.1
0.8375 0 0.1
0.8625 0 0.1
0.8875 0 0.1
0.9125 0 0.1
0.9375 0 0.1
0.9625 0 0.1
0.9875 0 0.1
1 0.025 0.1
1 0.05 0.1
1 0.075 0.1
1 0.1 0.1
1 0.125 0.1
1 0.15 0.1
1 0.175 0.1
1 0.2 0.1
1 0.225 0.1
1 0.25 0.1
1 0.275 0.1
1 0.3 0.1
1 0.325 0.1
1 0.35 0.1
1 0.375 0.1
1 0.4 0.1
1 0.425 0.1
1 0.45 0.1
1 0.475 0.1
1 0.0125 0.1
1 0.0375 0.1
1 0.0625 0.1
1 0.0875 0.1
1 0.1125 0.1
1 0.1375 0.1
1 0.1625 0.1
1 0.1875 0.1
1 0.2125 0.1
1 0.2375 0.1
1 0.2625 0.1
1 0.2875 0.1
1 0.3125 0.1
1 0.3375 0.1
1 0.3625 0.1
1 0.3875 0.1
1 0.4125 0.1
1 0.4375 0.1
1 0.4625 0.1
1 0.4875 0.1
0.975 0.5 0.1
0.95 0.5 0.1
0.925 0.5 0.1
0.9 0.5 0.1
0.875 0.5 0.1
0.85 0.5 0.1
0.825 0.5 0.1
0.8 0.5 0.1
0.775 0.5 0.1
0.75 0.5 0.1
0.725 0.5 0.1
0.7 0.5 0.1
0.675 0.5 0.1
0.65 0.5 0.1
0.625 0.5 0.1
0.6 0.5 0.1
0.575 0.5 0.1
0.55 0.5 0.1
0.525 0.5 0.1
0.5 0.5 0.1
0.475 0.5 0.1
0.45 0.5 0.1
0.425 0.5 0.1
0.4 0.5 0.1
0.375 0.5 0.1
0.35 0.5 0.1
0.325 0.5 0.1
0.3 0.5 0.1
0.275 0.5 0.1
0.25 0.5 0.1
0.225 0.5 0.1
0.2 0.5 0.1
0.175 0.5 0.1
0.15 0.5 0.1
0.125 0.5 0.1
0.1 0.5 0.1
0.075 0.5 0.1
0.05 0.5 0.1
0.025 0.5 0.1
0.9875 0.5 0.1
0.9625 0.5 0.1
0.9375 0.5 0.1
0.9125 0.5 0.1
0.8875 0.5 0.1
0.8625 0.5 0.1
0.8375 0.5 0.1
0.8125 0.5 0.1
0.7875 0.5 0.1
0.7625 0.5 0.1
0.7375 0.5 0.1
0.7125 0.5 0.1
0.6875 0.5 0.1
0.6625 0.5 0.1
0.6375 0.5 0.1
0.6125 0.5 0.1
0.5875 0.5 0.1
0.5625 0.5 0.1
0.5375 0.5 0.1
0.5125 0.5 0.1
0.4875 0.5 0.1
0.4625 0.5 0.1
0.4375 0.5 0.1
0.4125 0.5 0.1
0.3875 0.5 0.1
0.3625 0.5 0.1
0.3375 0.5 0.1
0.3125 0.5 0.1
0.2875 0.5 0.1
0.2625 0.5 0.1
0.2375 0.5 0.1
0.2125 0.5 0.1
0.1875 0.5 0.1
0.1625 0.5 0.1
0.1375 0.5 0.1
0.1125 0.5 0.1
0.0875 0.5 0.1
0.0625 0.5 0.1
0.0375 0.5 0.1
0.0125 0.5 0.1
0 0.475 0.1
0 0.45 0.1
0 0.425 0.1
0 0.4 0.1
0 0.375 0.1
0 0.35 0.1
0 0.325 0.1
0 0.3 0.1
0 0.275 0.1
0 0.25 0.1
0 0.225 0.1
0 0.2 0.1
0 0.175 0.1
0 0.15 0.1
0 0.125 0.1
0 0.1 0.1
0 0.075 0.1
0 0.05 0.1
0 0.025 0.1
0 0.4875 0.1
0 0.4625 0.1
0 0.4375 0.1
0 0.4125 0.1
0 0.3875 0.1
0 0.3625 0.1
0 0.3375 0.1
0 0.3125 0.1
0 0.2875 0.1
0 0.2625 0.1
0 0.2375 0.1
0 0.2125 0.1
0 0.1875 0.1
0 0.1625 0.1
0 0.1375 0.1
0 0.1125 0.1
0 0.0875 0.1
0 0.0625 0.1
0 0.0375 0.1
0 0.0125 0.1
0.975 0.475 0.1
0.975 0.45 0.1
0.975 0.425 0.1
0.975 0.4 0.1
0.975 0.375 0.1
0.975 0.35 0.1
0.975 0.325 0.1
0.975 0.3 0.1
0.975 0.275 0.1
0.975 0.25 0.1
0.975 0.225 0.1
0.975 0.2 0.1
0.975 0.175 0.1
0.975 0.15 0.1
0.975 0.125 0.1
0.975 0.1 0.1
0.975 0.075 0.1
0.975 0.05 0.1
0.975 0.025 0.1
0.95 0.475 0.1
0.95 0.45 0.1
0.95 0.425 0.1
0.95 0.4 0.1
0.95 0.375 0.1
0.95 0.35 0.1
0.95 0.325 0.1
0.95 0.3 0.1
0.95 0.275 0.1
0.95 0.25 0.1
0.95 0.225 0.1
0.95 0.2 0.1
0.95 0.175 0.1
0.95 0.15 0.1
0.95 0.125 0.1
0.95 0.1 0.1
0.95 0.075 0.1
0.95 0.05 0.1
0.95 0.025 0.1
0.925 0.475 0.1
0.925 0.45 0.1
0.925 0.425 0.1
0.925 0.4 0.1
0.925 0.375 0.1
0.925 0.35 0.1
0.925 0.325 0.1
0.925 0.3 0.1
0.925 0.275 0.1
0.925 0.25 0.1
0.925 0.225 0.1
0.925 0.2 0.1
0.925 0.175 0.1
0.925 0.15 0.1
0.925 0.125 0.1
0.925 0.1 0.1
0.925 0.075 0.1
0.925 0.05 0.1
0.925 0.025 0.1
0.9 0.475 0.1
0.9 0.45 0.1
0.9 0.425 0.1
0.9 0.4 0.1
0.9 0.375 0.1
0.9 0.35 0.1
0.9 0.325 0.1
0.9 0.3 0.1
0.9 0.275 0.1
0.9 0.25 0.1
0.9 0.225 0.1
0.9 0.2 0.1
0.9 0.175 0.1
0.9 0.15 0.1
0.9 0.125 0.1
0.9 0.1 0.1
0.9 0.075 0.1
0.9 0.05 0.1
0.9 0.025 0.1
0.875 0.475 0.1
0.875 0.45 0.1
0.875 0.425 0.1
0.875 0.4 0.1
0.875 0.375 0.1
0.875 0.35 0.1
0.875 0.325 0.1
0.875 0.3 0.1
0.875 0.275 0.1
0.875 0.25 0.1
0.875 0.225 0.1
0.875 0.2 0.1
0.875 0.175 0.1
0.875 0.15 0.1
0.875 0.125 0.1
0.875 0.1 0.1
0.875 0.075 0.1
0.875 0.05 0.1
0.875 0.025 0.1
0.85 0.475 0.1
0.85 0.45 0.1
0.85 0.425 0.1
0.85 0.4 0.1
0.85 0.375 0.1
0.85 0.35 0.1
0.85 0.325 0.1
0.85 0.3 0.1
0.85 0.275 0.1
0.85 0.25 0.1
0.85 0.225 0.1
0.85 0.2 0.1
0.85 0.175 0.1
0.85 0.15 0.1
0.85 0.125 0.1
0.85 0.1 0.1
0.85 0.075 0.1
0.85 0.05 0.1
0.85 0.025 0.1
0.825 0.475 0.1
0.825 0.45 0.1
0.825 0.425 0.1
0.825 0.4 0.1
0.825 0.375 0.1
0.825 0.35 0.1
0.825 0.325 0.1
0.825 0.3 0.1
0.825 0.275 0.1
0.825 0.25 0.1
0.825 0.225 0.1
0.825 0.2 0.1
0.825 0.175 0.1
0.825 0.15 0.1
0.825 0.125 0.1
0.825 0.1 0.1
0.825 0.075 0.1
0.825 0.05 0.1
0.825 0.025 0.1
0.8 0.475 0.1
0.8 0.45 0.1
0.8 0.425 0.1
0.8 0.4 0.1
0.8 0.375 0.1
0.8 0.35 0.1
0.8 0.325 0.1
0.8 0.3 0.1
0.8 0.275 0.1
0.8 0.25 0.1
0.8 0.225 0.1
0.8 0.2 0.1
0.8 0.175 0.1
0.8 0.15 0.1
0.8 0.125 0.1
0.8 0.1 0.1
0.8 0.075 0.1
0.8 0.05 0.1
0.8 0.025 0.1
0.775 0.475 0.1
0.775 0.45 0.1
0.775 0.425 0.1
0.775 0.4 0.1
0.775 0.375 0.1
0.775 0.35 0.1
0.775 0.325 0.1
0.775 0.3 0.1
0.775 0.275 0.1
0.775 0.25 0.1
0.775 0.225 0.1
0.775 0.2 0.1
0.775 0.175 0.1
0.775 0.15 0.1
0.775 0.125 0.1
0.775 0.1 0.1
0.775 0.075 0.1
0.775 0.05 0.1
0.775 0.025 0.1
0.75 0.475 0.1
0.75 0.45 0.1
0.75 0.425 0.1
0.75 0.4 0.1
0.75 0.375 0.1
0.75 0.35 0.1
0.75 0.325 0.1
0.75 0.3 0.1
0.75 0.275 0.1
0.75 0.25 0.1
0.75 0.225 0.1
0.75 0.2 0.1
0.75 0.175 0.1
0.75 0.15 0.1
0.75 0.125 0.1
0.75 0.1 0.1
0.75 0.075 0.1
0.75 0.05 0.1
0.75 0.025 0.1
0.725 0.475 0.1
0.725 0.45 0.1
0.725 0.425 0.1
0.725 0.4 0.1
0.725 0.375 0.1
0.725 0.35 0.1
0.725 0.325 0.1
0.725 0.3 0.1
0.725 0.275 0.1
0.725 0.25 0.1
0.725 0.225 0.1
0.725 0.2 0.1
0.725 0.175 0.1
0.725 0.15 0.1
0.725 0.125 0.1
0.725 0.1 0.1
0.725 0.075 0.1
0.725 0.05 0.1
0.725 0.025 0.1
0.7 0.475 0.1
0.7 0.45 0.1
0.7 0.425 0.1
0.7 0.4 0.1
0.7 0.375 0.1
0.7 0.35 0.1
0.7 0.325 0.1
0.7 0.3 0.1
0.7 0.275 0.1
0.7 0.25 0.1
0.7 0.225 0.1
0.7 0.2 0.1
0.7 0.175 0.1
0.7 0.15 0.1
0.7 0.125 0.1
0.7 0.1 0.1
0.7 0.075 0.1
0.7 0.05 0.1
0.7 0.025 0.1
0.675 0.475 0.1
0.675 0.45 0.1
0.675 0.425 0.1
0.675 0.4 0.1
0.675 0.375 0.1
0.675 0.35 0.1
0.675 0.325 0.1
0.675 0.3 0.1
0.675 0.275 0.1
0.675 0.25 0.1
0.675 0.225 0.1
0.675 0.2 0.1
0.675 0.175 0.1
0.675 0.15 0.1
0.675 0.125 0.1
0.675 0.1 0.1
0.675 0.075 0.1
0.675 0.05 0.1
0.675 0.025 0.1
0.65 0.475 0.1
0.65 0.45 0.1
0.65 0.425 0.1
0.65 0.4 0.1
0.65 0.375 0.1
0.65 0.35 0.1
0.65 0.325 0.1
0.65 0.3 0.1
0.65 0.275 0.1
0.65 0.25 0.1
0.65 0.225 0.1
0.65 0.2 0.1
0.65 0.175 0.1
0.65 0.15 0.1
0.65 0.125 0.1
0.65 0.1 0.1
0.65 0.075 0.1
0.65 0.05 0.1
0.65 0.025 0.1
0.625 0.475 0.1
0.625 0.45 0.1
0.625 0.425 0.1
0.625 0.4 0.1
0.625 0.375 0.1
0.625 0.35 0.1
0.625 0.325 0.1
0.625 0.3 0.1
0.625 0.275 0.1
0.625 0.25 0.1
0.625 0.225 0.1
0.625 0.2 0.1
0.625 0.175 0.1
0.625 0.15 0.1
0.625 0.125 0.1
0.625 0.1 0.1
0.625 0.075 0.1
0.625 0.05 0.1
0.625 0.025 0.1
0.6 0.475 0.1
0.6 0.45 0.1
0.6 0.425 0.1
0.6 0.4 0.1
0.6 0.375 0.1
0.6 0.35 0.1
0.6 0.325 0.1
0.6 0.3 0.1
0.6 0.275 0.1
0.6 0.25 0.1
0.6 0.225 0.1
0.6 0.2 0.1
0.6 0.175 0.1
0.6 0.15 0.1
0.6 0.125 0.1
0.6 0.1 0.1
0.6 0.075 0.1
0.6 0.05 0.1
0.6 0.025 0.1
0.575 0.475 0.1
0.575 0.45 0.1
0.575 0.425 0.1
0.575 0.4 0.1
0.575 0.375 0.1
0.575 0.35 0.1
0.575 0.325 0.1
0.575 0.3 0.1
0.575 0.275 0.1
0.575 0.25 0.1
0.575 0.225 0.1
0.575 0.2 0.1
0.575 0.175 0.1
0.575 0.15 0.1
0.575 0.125 0.1
0.575 0.1 0.1
0.575 0.075 0.1
0.575 0.05 0.1
0.575 0.025 0.1
0.55 0.475 0.1
0.55 0.45 0.1
0.55 0.425 0.1
0.55 0.4 0.1
0.55 0.375 0.1
0.55 0.35 0.1
0.55 0.325 0.1
0.55 0.3 0.1
0.55 0.275 0.1
0.55 0.25 0.1
0.55 0.225 0.1
0.55 0.2 0.1
0.55 0.175 0.1
0.55 0.15 0.1
0.55 0.125 0.1
0.55 0.1 0.1
0.55 0.075 0.1
0.55 0.05 0.1
0.55 0.025 0.1
0.525 0.475 0.1
0.525 0.45 0.1
0.525 0.425 0.1
0.525 0.4 0.1
0.525 0.375 0.1
0.525 0.35 0.1
0.525 0.325 0.1
0.525 0.3 0.1
0.525 0.275 0.1
0.525 0.25 0.1
0.525 0.225 0.1
0.525 0.2 0.1
0.525 0.175 0.1
0.525 0.15 0.1
0.525 0.125 0.1
0.525 0.1 0.1
0.525 0.075 0.1
0.525 0.05 0.1
0.525 0.025 0.1
0.5 0.475 0.1
0.5 0.45 0.1
0.5 0.425 0.1
0.5 0.4 0.1
0.5 0.375 0.1
0.5 0.35 0.1
0.5 0.325 0.1
0.5 0.3 0.1
0.5 0.275 0.1
0.5 0.25 0.1
0.5 0.225 0.1
0.5 0.2 0.1
0.5 0.175 0.1
0.5 0.15 0.1
0.5 0.125 0.1
0.5 0.1 0.1
0.5 0.075 0.1
0.5 0.05 0.1
0.5 0.025 0.1
0.475 0.475 0.1
0.475 0.45 0.1
0.475 0.425 0.1
0.475 0.4 0.1
0.475 0.375 0.1
0.475 0.35 0.1
0.475 0.325 0.1
0.475 0.3 0.1
0.475 0.275 0.1
0.475 0.25 0.1
0.475 0.225 0.1
0.475 0.2 0.1
0.475 0.175 0.1
0.475 0.15 0.1
0.475 0.125 0.1
0.475 0.1 0.1
0.475 0.075 0.1
0.475 0.05 0.1
0.475 0.025 0.1
0.45 0.475 0.1
0.45 0.45 0.1
0.45 0.425 0.1
0.45 0.4 0.1
0.45 0.375 0.1
0.45 0.35 0.1
0.45 0.325 0.1
0.45 0.3 0.1
0.45 0.275 0.1
0.45 0.25 0.1
0.45 0.225 0.1
0.45 0.2 0.1
0.45 0.175 0.1
0.45 0.15 0.1
0.45 0.125 0.1
0.45 0.1 0.1
0.45 0.075 0.1
0.45 0.05 0.1
0.45 0.025 0.1
0.425 0.475 0.1
0.425 0.45 0.1
0.425 0.425 0.1
0.425 0.4 0.1
0.425 0.375 0.1
0.425 0.35 0.1
0.425 0.325 0.1
0.425 0.3 0.1
0.425 0.275 0.1
0.425 0.25 0.1
0.425 0.225 0.1
0.425 0.2 0.1
0.425 0.175 0.1
0.425 0.15 0.1
0.425 0.125 0.1
0.425 0.1 0.1
0.425 0.075 0.1
0.425 0.05 0.1
0.425 0.025 0.1
0.4 0.475 0.1
0.4 0.45 0.1
0.4 0.425 0.1
0.4 0.4 0.1
0.4 0.375 0.1
0.4 0.35 0.1
0.4 0.325 0.1
0.4 0.3 0.1
0.4 0.275 0.1
0.4 0.25 0.1
0.4 0.225 0.1
0.4 0.2 0.1
0.4 0.175 0.1
0.4 0.15 0.1
0.4 0.125 0.1
0.4 0.1 0.1
0.4 0.075 0.1
0.4 0.05 0.1
0.4 0.025 0.1
0.375 0.475 0.1
0.375 0.45 0.1
0.375 0.425 0.1
0.375 0.4 0.1
0.375 0.375 0.1
[...]
    <PointData>
      <DataArray type="Float64" NumberOfComponents="3" Name="Velocity" format="ascii">
0 0 0
0 0 0
0 0 0
0 0 0
0 0 0
0 0 0
0 0 0
0 0 0
0 0 0
0 0 0
0 0 0
0 0 0
0 0 0
0 0 0
0 0 0
0 0 0
0 0 0
0 0 0
0 0 0
0 0 0
0 0 0
0 0 0
0 0 0
0 0 0
0 0 0
0 0 0
0 0 0
0 0 0
0 0 0
0 0 0
0 0 0
0 0 0
0 0 0
0 0 0
0 0 0
0 0 0
0 0 0
0 0 0
0 0 0
0 0 0
0 0 0
0 0 0
0 0 0
0 0 0
0 0 0
0 0 0
0 0 0
0 0 0
0 0 0
0 0 0
0 0 0
0 0 0
0 0 0
0 0 0
0 0 0
0 0 0
0 0 0
0 0 0
0 0 0
0 0 0
0 0 0
0 0 0
0 0 0
0 0 0
0 0 0
0 0 0
0 0 0
0 0 0
0 0 0
0 0 0
0 0 0
0 0 0
0 0 0
0 0 0
0 0 0
0 0 0
0 0 0
0 0 0
0 0 0
0 0 0
0 0 0
0 0 0
0 0 0
0 0 0
0 0 0
0 0 0
0 0 0
0 0 0
0 0 0
0 0 0
0 0 0
0 0 0
0 0 0
0 0 0
0 0 0
0 0 0
0 0 0
0 0 0
0 0 0
0 0 0
0 0 0
0 0 0
0 0 0
0 0 0
0 0 0
0 0 0
0 0 0
0 0 0
0 0 0
0 0 0
0 0 0
0 0 0
0 0 0
0 0 0
0 0 0
0 0 0
0 0 0
0 0 0
0 0 0
0 0 0
0 0 0
0 0 0
-0.00285701 -0.222924 0
0.011879 -0.219831 0
0.00785117 -0.208274 0
-0.00667229 -0.196142 0
-0.0115958 -0.191274 0
-0.012287 -0.187678 0
-0.0123678 -0.18119 0
-0.0152111 -0.169425 0
-0.0173674 -0.156691 0
-0.0183486 -0.145353 0
-0.0191376 -0.133395 0
-0.0200248 -0.119513 0
-0.0208618 -0.10417 0
-0.0216851 -0.0907569 0
-0.0204746 -0.0765545 0
-0.0211693 -0.0618285 0
-0.0207741 -0.0479761 0
-0.0212124 -0.0325465 0
-0.0222743 -0.0182885 0
-0.0219189 -0.00470231 0
-0.0194483 0.00869103 0
-0.0190226 0.0226538 0
-0.0197712 0.0371228 0
-0.0211188 0.0523645 0
-0.0216791 0.067151 0
-0.0220801 0.0824698 0
-0.0226345 0.0960984 0
-0.0226282 0.107494 0
-0.0232115 0.120273 0
-0.0235844 0.132248 0
-0.0223136 0.144771 0
-0.0187053 0.158748 0
-0.0149756 0.176435 0
-0.00900233 0.195012 0
-0.00543522 0.213262 0
0.00321477 0.222687 0
0.0132569 0.226632 0
0.0165633 0.206611 0
0.01963 0.197894 0
-0.0192328 -0.209959 0
0.00133377 -0.22819 0
0.00521726 -0.226109 0
-0.00412539 -0.21686 0
-0.0143506 -0.209693 0
-0.0162821 -0.203649 0
-0.016192 -0.199367 0
-0.0169779 -0.188253 0
-0.0195016 -0.174177 0
-0.0206455 -0.160966 0
-0.0211526 -0.148618 0
-0.0219108 -0.135041 0
-0.0223442 -0.119485 0
-0.0229581 -0.103696 0
-0.0225545 -0.0898169 0
-0.0217836 -0.0739831 0
-0.0220009 -0.0592825 0
-0.0214838 -0.0432084 0
-0.0222467 -0.0284422 0
-0.0223873 -0.0123871 0
-0.0203737 0.00146453 0
-0.0187926 0.0162462 0
-0.0186214 0.0314258 0
-0.0192891 0.0468893 0
-0.0203593 0.0625382 0
-0.0200402 0.0784277 0
-0.0201922 0.0941535 0
-0.0200658 0.107947 0
-0.0201384 0.12091 0
-0.0204055 0.133976 0
-0.0199486 0.146872 0
-0.0172515 0.160777 0
-0.013277 0.177034 0
-0.0094259 0.194386 0
-0.004039 0.21338 0
0.0013866 0.228871 0
0.0136195 0.239141 0
0.0214052 0.231525 0
0.0220949 0.20923 0
0.0536834 0.201363 0
0 0 0
0 0 0
0 0 0
0 0 0
0 0 0
0 0 0
0 0 0
0 0 0
0 0 0
0 0 0
0 0 0
0 0 0
0 0 0
0 0 0
0 0 0
0 0 0
0 0 0
0 0 0
0 0 0
0 0 0
0 0 0
0 0 0
0 0 0
0 0 0
0 0 0
0 0 0
0 0 0
0 0 0
0 0 0
0 0 0
0 0 0
0 0 0
0 0 0
0 0 0
0 0 0
0 0 0
0 0 0
0 0 0
0 0 0
0.0578316 0.00125123 0
0.038239 0.073743 0
-0.0090069 0.0842307 0
-0.0223459 0.0638957 0
-0.00108068 0.0278579 0
0.000998836 0.0133023 0
0.00078599 0.00786617 0
0.000547303 0.00546057 0
0.000407165 0.00413805 0
0.000316823 0.00325843 0
0.000250368 0.00258719 0
0.000197153 0.00202615 0
0.000153911 0.0015275 0
0.000125464 0.00106637 0
0.000128268 0.000637914 0
0.000142248 0.000163843 0
5.25402e-05 -0.000272262 0
0.000297163 -0.000748005 0
0.00121314 -0.0010828 0
0.0623283 0.0181753 0
0.0527562 0.09531 0
0.0106534 0.0997488 0
-0.0188125 0.0642987 0
0.00129784 0.0288705 0
0.00371677 0.0166481 0
0.00305078 0.0112318 0
0.00224663 0.00840594 0
0.00171056 0.00660352 0
0.00137429 0.00528455 0
0.00115844 0.00422948 0
0.00101794 0.00333167 0
0.000930002 0.00253325 0
0.000882524 0.00180111 0
0.000863942 0.0011116 0
0.000871594 0.00044031 0
0.000971584 -0.000121803 0
0.00112579 -0.00052901 0
0.00123825 -0.000513707 0
0.0430785 0.012901 0
0.0548463 0.0816369 0
0.0366606 0.0966714 0
-0.00532716 0.0623672 0
0.0026221 0.0269676 0
0.00487779 0.0160209 0
0.00464787 0.0117539 0
0.00385474 0.00943303 0
0.00313288 0.00774036 0
0.00259999 0.00635095 0
0.0022287 0.00516084 0
0.00197619 0.00411278 0
0.0018101 0.00316834 0
0.00170856 0.00230224 0
0.00165733 0.00150113 0
0.00165223 0.000777001 0
0.00166906 0.000196672 0
0.00161283 -0.000176424 0
0.00131881 -0.000210345 0
0.0286687 0.00883868 0
0.0556003 0.0644863 0
0.0517375 0.0884079 0
0.00770169 0.0615487 0
0.00554376 0.0275816 0
0.00611237 0.0160816 0
0.00592072 0.0117993 0
0.00523915 0.00962787 0
0.0044805 0.00807824 0
0.00383914 0.00675964 0
0.00335146 0.00557854 0
0.00299787 0.00450511 0
0.00274881 0.00352203 0
0.00257741 0.00261883 0
0.0024597 0.00179586 0
0.00236683 0.00107407 0
0.00224 0.000499457 0
0.00196314 0.000112444 0
0.00141183 5.15018e-06 0
0.0193159 0.00235958 0
0.0550146 0.0509548 0
0.0581246 0.0797802 0
0.0164355 0.0608744 0
0.0100783 0.0287294 0
0.00844521 0.0165513 0
0.00749654 0.0117936 0
0.00658784 0.00950795 0
0.00573741 0.00800684 0
0.00501614 0.00677124 0
0.00444554 0.00565617 0
0.00401142 0.0046246 0
0.00368637 0.00366702 0
0.00343982 0.00278282 0
0.0032377 0.00197969 0
0.00303405 0.00127728 0
0.00275531 0.000705758 0
0.00228616 0.000291721 0
0.00153637 9.17309e-05 0
0.0174823 -0.00776887 0
0.0564014 0.0407809 0
0.0589391 0.0710349 0
0.0204052 0.056458 0
0.0142044 0.0275401 0
0.0110569 0.0160639 0
0.00921381 0.0113721 0
0.00791845 0.00911796 0
0.00690952 0.00769057 0
0.00610531 0.00654729 0
0.00546983 0.00551917 0
0.00497313 0.00455971 0
0.00458361 0.0036599 0
0.0042667 0.00282278 0
0.0039815 0.00205805 0
0.00367332 0.00138172 0
0.00326322 0.000813724 0
0.00263599 0.00036922 0
0.0016895 0.000135001 0
0.0189092 -0.0135468 0
0.0547184 0.0349976 0
0.0591786 0.062435 0
0.0226459 0.0495018 0
0.016803 0.0242235 0
0.0130164 0.0144782 0
0.0106706 0.0104567 0
0.00910531 0.00848021 0
0.00796592 0.00720714 0
0.00709226 0.00617935 0
0.0064067 0.0052491 0
0.00586219 0.00437374 0
0.00542063 0.00354536 0
0.00504368 0.00276785 0
0.00468635 0.00205055 0
0.00428996 0.00140665 0
0.00377436 0.000852561 0
0.00302948 0.000405209 0
0.00196378 0.000138174 0
0.0192354 -0.00975558 0
0.053923 0.0335102 0
0.0603098 0.0540308 0
0.0238688 0.0420975 0
0.0178218 0.020604 0
0.0140879 0.0126565 0
0.0117054 0.00937865 0
0.0100764 0.00772983 0
0.00888376 0.00663407 0
0.00797032 0.00572902 0
0.00725074 0.00489889 0
0.00667113 0.00411034 0
0.00618921 0.00335761 0
0.0057638 0.0026447 0
0.00534723 0.00197993 0
0.00487783 0.00137474 0
0.00427112 0.000844983 0
0.00340691 0.000414454 0
0.00217968 0.000204411 0
0.017105 -0.00693345 0
0.0548495 0.0311944 0
0.0623933 0.0492644 0
0.0242774 0.0385669 0
0.0181121 0.0185974 0
0.0147285 0.0113567 0
0.012486 0.00844402 0
0.0108827 0.00699615 0
0.00967883 0.00603577 0
0.0087456 0.00523894 0
0.00800406 0.00450313 0
0.00739936 0.0037991 0
0.00688702 0.0031219 0
0.00642374 0.00247509 0
0.00595973 0.00186598 0
0.00543026 0.00130436 0
0.00474429 0.000803231 0
0.00376505 0.000379403 0
0.00234697 0.000114385 0
0.0155335 -0.00878217 0
0.0549015 0.0267826 0
0.0626885 0.0458968 0
0.0252699 0.036721 0
0.0189769 0.0176133 0
0.0155284 0.0104648 0
0.0132434 0.00764052 0
0.0116074 0.00629426 0
0.0103801 0.00543358 0
0.00942922 0.00473084 0
0.00867165 0.00408271 0
0.00804908 0.0034596 0
0.00751434 0.00285617 0
0.00702208 0.00227547 0
0.00652065 0.00172418 0
0.0059434 0.00121134 0
0.00519762 0.00074807 0
0.00414622 0.0003441 0
0.00264303 8.12539e-05 0
0.0151843 -0.0105508 0
0.0537256 0.0227844 0
0.0612477 0.0410682 0
0.0263809 0.032944 0
0.0202349 0.0158322 0
0.0164556 0.00933258 0
0.0139795 0.00676719 0
0.0122577 0.00557019 0
0.0109938 0.0048208 0
0.0100259 0.00421277 0
0.00925717 0.00364985 0
0.00862286 0.00310482 0
0.00807243 0.002573 0
0.00755829 0.00205755 0
0.0070267 0.00156523 0
0.00640844 0.00110599 0
0.00560725 0.000694474 0
0.00448113 0.000350176 0
0.00286243 0.000152029 0
0.0150474 -0.0107977 0
0.0518313 0.0196327 0
0.0602022 0.0347851 0
0.0270191 0.0275862 0
0.0210044 0.0130801 0
0.0170971 0.00780897 0
0.01454 0.0057654 0
0.012783 0.00481013 0
0.0115064 0.00419991 0
0.0105343 0.00369246 0
0.00976276 0.0032137 0
0.00912328 0.00274402 0
0.00856314 0.00228124 0
0.0080329 0.00182922 0
0.00747642 0.001395 0
0.0068204 0.00098921 0
0.00596164 0.000628182 0
0.00474635 0.000336994 0
0.00300091 0.000240959 0
0.0146643 -0.00823387 0
0.0510288 0.0174349 0
0.0604698 0.0283468 0
0.0269605 0.0223785 0
0.0209432 0.0105201 0
0.0172773 0.00635854 0
0.0148551 0.00479699 0
0.0131602 0.00407194 0
0.0119132 0.0035947 0
0.0109562 0.0031824 0
0.0101918 0.00278289 0
0.00955357 0.00238443 0
0.00898905 0.00198739 0
0.0084479 0.00159611 0
0.0078717 0.00121709 0
0.00718222 0.00085994 0
0.00626574 0.000539519 0
0.00494892 0.000270734 0
0.00303922 7.70974e-05 0
0.0141497 -0.00595552 0
0.0516918 0.0151894 0
0.0610663 0.0241285 0
0.0266533 0.019376 0
0.0206643 0.00899402 0
0.0172765 0.00533475 0
0.0150324 0.0040067 0
0.0134313 0.00341359 0
0.0122328 0.00302922 0
0.0113014 0.00269393 0
0.0105504 0.00236417 0
0.00991797 0.00203125 0
0.00935322 0.00169632 0
0.008806 0.00136321 0
0.00821677 0.00103686 0
0.00750484 0.000723545 0
0.00655309 0.000432209 0
0.00518741 0.000176553 0
0.00321208 5.39058e-05 0
0.0137628 -0.0061606 0
0.0518568 0.0123015 0
0.0606636 0.0206717 0
0.0267522 0.0169015 0
0.0207782 0.00787445 0
0.0173948 0.00457541 0
0.0152049 0.00336115 0
0.0136547 0.0028324 0
0.0124921 0.00250616 0
0.0115836 0.0022299 0
0.0108462 0.00196011 0
0.0102209 0.00168717 0
0.00965834 0.00141122 0
0.00910877 0.00113492 0
0.00851263 0.000861628 0
0.00778867 0.000595092 0
0.00681818 0.000340272 0
0.00541859 0.000106285 0
0.00335664 -1.82832e-05 0
0.014057 -0.00557177 0
0.0513181 0.00976873 0
0.0596772 0.0163296 0
0.0268787 0.0134141 0
0.0210566 0.00639258 0
0.0176083 0.00376022 0
0.0153968 0.00274061 0
0.0138545 0.00228527 0
0.0127074 0.00201004 0
0.0118127 0.00178475 0
0.0110853 0.00156898 0
0.0104661 0.00135221 0
0.00990605 0.00113321 0
0.00935595 0.000913544 0
0.00875624 0.000695614 0
0.00802569 0.000482575 0
0.00704558 0.000279269 0
0.00563176 9.26586e-05 0
0.00352087 -2.94191e-05 0
0.0139589 -0.00407069 0
0.0507096 0.00750099 0
0.0590464 0.0120824 0
0.0267927 0.00982627 0
0.0211953 0.00469247 0
0.017783 0.00282416 0
0.015567 0.00208484 0
0.0140238 0.00173821 0
0.0128812 0.00152376 0
0.0119928 0.00135015 0
0.0112709 0.00118673 0
0.0106554 0.00102439 0
0.0100971 0.000861399 0
0.00954637 0.000698608 0
0.0089435 0.000538053 0
0.0082066 0.000383303 0
0.00721619 0.000242331 0
0.00579094 0.000134366 0
0.00368541 0.000162564 0
0.0138589 -0.00295235 0
0.0503292 0.0050244 0
0.0584432 0.00799087 0
0.0266365 0.00646435 0
0.0211858 0.003079 0
0.0178693 0.00187932 0
0.015685 0.00141204 0
0.0141498 0.00118495 0
0.01301 0.00103878 0
0.0121239 0.000919777 0
0.011404 0.000809198 0
0.0107899 0.000700887 0
0.0102316 0.000593434 0
0.00967921 0.000487414 0
0.00907187 0.000384599 0
0.00832555 0.000288191 0
0.00731466 0.00020446 0
0.00583949 0.000148494 0
0.00364881 0.000258281 0
0.0139208 -0.00182904 0
0.0501331 0.00269 0
0.0579506 0.00419769 0
0.0264736 0.00334451 0
0.0211294 0.00161292 0
0.0178964 0.000993366 0
0.0157517 0.000752579 0
0.0142284 0.000632487 0
0.013091 0.000553712 0
0.0122048 0.000490417 0
0.0114847 0.000433276 0
0.0108699 0.000378915 0
0.0103102 0.00032648 0
0.00975497 0.000276364 0
0.00914246 0.000229703 0
0.00838678 0.000188008 0
0.00735762 0.000151724 0
0.00584526 0.000106915 0
0.00355815 -1.87504e-05 0
0.0145958 -0.000427353 0
0.0499705 0.000405423 0
0.0575855 0.00051887 0
0.0263658 0.000387051 0
0.0210989 0.000264355 0
0.0179105 0.000162927 0
0.0157837 0.000111324 0
0.0142632 8.35484e-05 0
0.0131238 6.84623e-05 0
0.0122351 6.05702e-05 0
0.0115128 5.69413e-05 0
0.0108959 5.62188e-05 0
0.0103338 5.80283e-05 0
0.00977521 6.25963e-05 0
0.00915858 7.04212e-05 0
0.00839971 8.15009e-05 0
0.00737733 9.33406e-05 0
0.00591325 9.86615e-05 0
0.00378729 0.000197365 0
0.0142624 0.000877186 0
0.0497206 -0.00187819 0
0.0573153 -0.0031191 0
0.0263782 -0.00249753 0
0.0211459 -0.00105766 0
0.017938 -0.000659915 0
0.0157907 -0.000528922 0
0.014256 -0.000466492 0
0.0131082 -0.000418169 0
0.0122145 -0.00037068 0
0.0114886 -0.000321113 0
0.0108687 -0.000268883 0
0.0103033 -0.000213877 0
0.00974121 -0.000156017 0
0.00912052 -9.50732e-05 0
0.0083571 -3.05325e-05 0
0.0073284 3.88757e-05 0
0.0058456 0.000114364 0
0.00366946 0.00026055 0
0.0140989 0.00258587 0
0.0497047 -0.00404813 0
0.0570774 -0.00683538 0
0.0265161 -0.00548805 0
0.0212419 -0.00245652 0
0.0179561 -0.00152105 0
0.0157597 -0.00118377 0
0.0142012 -0.00102093 0
0.0130425 -0.000906377 0
0.012143 -0.000803628 0
0.0114129 -0.000701816 0
0.0107892 -0.000597733 0
0.0102202 -0.000490779 0
0.0096547 -0.000381351 0
0.00903052 -0.000270163 0
0.00826252 -0.000158023 0
0.00722523 -4.66606e-05 0
0.00572615 5.19074e-05 0
0.00354571 0.000154263 0
0.0142603 0.0039299 0
0.0496106 -0.0066589 0
0.057164 -0.0107548 0
0.0266779 -0.00873671 0
0.0212804 -0.00395315 0
0.0179005 -0.00240944 0
0.0156646 -0.00184093 0
0.0140917 -0.00157251 0
0.0129267 -0.00139347 0
0.0120222 -0.00123832 0
0.0112871 -0.00108639 0
0.0106586 -0.000931758 0
0.0100858 -0.00077381 0
0.00951781 -0.000614088 0
0.0088931 -0.000455233 0
0.00812706 -0.00030107 0
0.00709623 -0.000158414 0
0.00561641 -4.62327e-05 0
0.00348878 6.08392e-05 0
0.0147063 0.00481353 0
0.0494222 -0.00968463 0
0.0576692 -0.0147559 0
0.0268449 -0.0118714 0
0.0211598 -0.00534157 0
0.0177346 -0.00322612 0
0.0155033 -0.00246023 0
0.0139346 -0.00210866 0
0.0127672 -0.00187815 0
0.0118559 -0.00167712 0
0.0111129 -0.00147769 0
0.0104776 -0.00127309 0
0.00990035 -0.00106387 0
0.0093314 -0.000853466 0
0.00871037 -0.000646883 0
0.00795467 -0.00045093 0
0.00694449 -0.000275451 0
0.00550148 -0.000138559 0
0.00343078 -1.5866e-06 0
0.0155215 0.00564563 0
0.0493751 -0.0128846 0
0.0577288 -0.0187692 0
0.0269617 -0.0145269 0
0.0209718 -0.00640925 0
0.0175458 -0.00390131 0
0.0153292 -0.00302981 0
0.0137573 -0.00263616 0
0.012576 -0.00237048 0
0.0116484 -0.00212846 0
0.010891 -0.00188149 0
0.0102453 -0.00162498 0
0.0096626 -0.001362 0
0.00909402 -0.00109826 0
0.0084806 -0.000840927 0
0.00774228 -0.000599174 0
0.00676295 -0.00038549 0
0.00536649 -0.000218965 0
0.00334977 -4.61888e-05 0
0.0162712 0.00736085 0
0.0498924 -0.015221 0
0.0567954 -0.0231239 0
0.0269944 -0.0169372 0
0.020956 -0.00737626 0
0.0174795 -0.0045738 0
0.0152058 -0.00362941 0
0.0135818 -0.00320076 0
0.0123579 -0.0028968 0
0.0113979 -0.00260726 0
0.0106177 -0.00230585 0
0.00995773 -0.0019913 0
0.00936884 -0.00166933 0
0.00880202 -0.00134757 0
0.00819941 -0.00103457 0
0.00748358 -0.000740596 0
0.00654293 -0.00047988 0
0.0052078 -0.000278493 0
0.00328632 -9.89549e-05 0
0.017044 0.0100328 0
0.0504497 -0.0177792 0
0.0560583 -0.0273772 0
0.0269577 -0.0199433 0
0.0211577 -0.00883551 0
0.01753 -0.00552984 0
0.0151121 -0.00439237 0
0.0133872 -0.00386606 0
0.0120957 -0.00348814 0
0.0110912 -0.00312864 0
0.010283 -0.00275775 0
0.0096076 -0.00237467 0
0.00901337 -0.00198616 0
0.00845048 -0.0016006 0
0.00786159 -0.00122676 0
0.00717169 -0.000874334 0
0.0062751 -0.000555473 0
0.00501592 -0.000291647 0
0.00322022 -5.31619e-05 0
0.0180594 0.0118335 0
0.051472 -0.0199714 0
0.0566992 -0.0319345 0
0.0268652 -0.0244839 0
0.0212072 -0.0111502 0
0.017445 -0.00688985 0
0.0149152 -0.00537265 0
0.0131046 -0.0046597 0
0.0117513 -0.00415817 0
0.0107055 -0.0036984 0
0.00987243 -0.00323856 0
0.00918503 -0.00277412 0
0.00858942 -0.00231056 0
0.00803447 -0.00185564 0
0.00746266 -0.00141753 0
0.00679962 -0.0010049 0
0.00593938 -0.000627766 0
0.00471822 -0.000303529 0
0.002943 -1.17355e-05 0
0.019969 0.0125985 0
0.0541868 -0.0241099 0
0.0572109 -0.0373703 0
0.0260667 -0.0291298 0
0.0205029 -0.0134984 0
0.0169596 -0.00835481 0
0.0144946 -0.00647259 0
0.0126706 -0.00554913 0
0.011287 -0.00489361 0
0.0102168 -0.00430841 0
0.00937013 -0.00374144 0
0.00867982 -0.00318335 0
0.00809062 -0.00263696 0
0.00755054 -0.00210844 0
0.00700214 -0.00160507 0
0.00637247 -0.00113557 0
0.00555962 -0.000712612 0
0.00441273 -0.000363901 0
0.00277335 -9.34872e-05 0
0.0218712 0.0129774 0
0.0559579 -0.0291694 0
0.0566909 -0.0428788 0
0.0251718 -0.0316897 0
0.0196282 -0.0150379 0
0.0163111 -0.00968176 0
0.0139029 -0.00760522 0
0.0120763 -0.00649269 0
0.0106819 -0.00566866 0
0.00960665 -0.00493989 0
0.00876301 -0.00425156 0
0.00808343 -0.00359016 0
0.00751216 -0.00295522 0
0.00699709 -0.00235066 0
0.00648163 -0.00178245 0
0.00589573 -0.00125886 0
0.00514482 -0.000792865 0
0.00409317 -0.00040899 0
0.00260506 -6.50673e-05 0
0.0230533 0.013835 0
0.0560637 -0.0332784 0
0.0566083 -0.0479253 0
0.024428 -0.035553 0
0.0193865 -0.0171462 0
0.0157616 -0.0112422 0
0.0131873 -0.00884084 0
0.0113128 -0.0074786 0
0.00991958 -0.00645555 0
0.00886176 -0.00556652 0
0.00804192 -0.00474693 0
0.00739045 -0.00397647 0
0.00685172 -0.00325034 0
0.00637438 -0.00256974 0
0.00590338 -0.00193883 0
0.00537162 -0.00136446 0
0.00469001 -0.000857721 0
0.00373125 -0.000442424 0
0.00236998 -0.000100934 0
0.0257382 0.014601 0
0.0558829 -0.0374656 0
0.0580016 -0.0528165 0
0.0237965 -0.0413535 0
0.0188084 -0.0204557 0
0.01486 -0.0132348 0
0.0121805 -0.010188 0
0.0103232 -0.00846589 0
0.00898001 -0.00721136 0
0.00797404 -0.00615258 0
0.0072033 -0.00519855 0
0.00659992 -0.00431849 0
0.00611041 -0.00350261 0
0.00568537 -0.00274917 0
0.00527204 -0.00206052 0
0.00480646 -0.00144223 0
0.00420455 -0.000903446 0
0.00334894 -0.000467203 0
0.00214769 -0.000112198 0
0.0297614 0.0164716 0
0.0582389 -0.0441644 0
0.0571986 -0.0582441 0
0.0239043 -0.045158 0
0.0173019 -0.0233713 0
0.0132674 -0.015117 0
0.0107732 -0.011422 0
0.00908737 -0.00934793 0
0.00786469 -0.00787474 0
0.0069476 -0.00665415 0
0.00625147 -0.00557095 0
0.00571677 -0.00458677 0
0.00529383 -0.00368762 0
0.00493635 -0.00286855 0
0.004595 -0.00213014 0
0.00420952 -0.00147781 0
0.00369959 -0.000921251 0
0.00295345 -0.000474917 0
0.0018717 -0.000123519 0
0.0320521 0.0077614 0
0.0582277 -0.0580402 0
0.055269 -0.069947 0
0.0231718 -0.0510419 0
0.0149219 -0.0257791 0
0.0111696 -0.0164267 0
0.00910302 -0.0123229 0
0.00767703 -0.0100334 0
0.00660564 -0.00839045 0
0.00579915 -0.00702352 0
0.00519952 -0.00582126 0
0.00475344 -0.00474514 0
0.00441362 -0.00377617 0
0.00413774 -0.00290415 0
0.00388222 -0.00212707 0
0.00359285 -0.00145105 0
0.00319483 -0.000889129 0
0.00258398 -0.000464171 0
0.00170574 -0.000131588 0
0.0378185 0.0013532 0
0.057702 -0.069234 0
0.0525916 -0.0785957 0
0.0193327 -0.0562453 0
0.0116832 -0.0275867 0
0.00894229 -0.017272 0
0.00738994 -0.0129624 0
0.00617269 -0.010529 0
0.00523194 -0.00871575 0
0.00455025 -0.00719994 0
0.00407123 -0.00589215 0
0.00373382 -0.00474784 0
0.00349032 -0.00373428 0
0.00330512 -0.00283056 0
0.00314485 -0.00203003 0
0.00296544 -0.00134053 0
0.00269815 -0.000780228 0
0.00223842 -0.000373075 0
0.00150835 -6.8069e-05 0
0.0477254 -0.00238642 0
0.0624868 -0.0806757 0
0.0435569 -0.091339 0
0.0102103 -0.0619479 0
0.00757788 -0.0289443 0
0.00680709 -0.018078 0
0.00565869 -0.013581 0
0.00454494 -0.0108381 0
0.00374613 -0.00875274 0
0.00323543 -0.00707687 0
0.00291285 -0.00570013 0
0.00270166 -0.00453719 0
0.00255845 -0.0035246 0
0.00246157 -0.00262406 0
0.00239527 -0.0018222 0
0.00233278 -0.00112988 0
0.00221479 -0.000577346 0
0.00192394 -0.000207493 0
0.00134723 2.57821e-05 0
0.0648965 -0.0121445 0
0.0711924 -0.0921884 0
0.0237503 -0.100531 0
-0.0034188 -0.0635671 0
0.00395027 -0.0306012 0
0.00473728 -0.0195229 0
0.0036286 -0.0141357 0
0.00269797 -0.0106663 0
0.0021945 -0.00823563 0
0.00194556 -0.00647492 0
0.00181236 -0.00513388 0
0.00172929 -0.00404575 0
0.00167253 -0.00310873 0
0.00164152 -0.00226677 0
0.00164887 -0.0014995 0
0.00169429 -0.00081754 0
0.0017458 -0.000263196 0
0.00167147 6.18975e-05 0
0.00130619 0.000131132 0
0.0813316 -0.0156809 0
0.0636318 -0.0877971 0
0.00313472 -0.102649 0
-0.0129804 -0.0705165 0
0.00147739 -0.0350577 0
0.00186606 -0.0207609 0
0.00107691 -0.0133665 0
0.000804433 -0.00919955 0
0.00080351 -0.00674425 0
0.000857495 -0.00518131 0
0.000896954 -0.00407356 0
0.000914143 -0.00319914 0
0.000912692 -0.00244453 0
0.000899812 -0.00174603 0
0.000931823 -0.0010826 0
0.0010401 -0.00044662 0