<?xml version="1.0"?>
<VTKFile type="UnstructuredGrid">
  <UnstructuredGrid>
  <Piece NumberOfPoints="5412"  NumberOfCells="2638">
    <Points>
      <DataArray type="Float64" NumberOfComponents="3" format="ascii">
8.5 7.5 0.1
9 8 0.1
8.5 8.5 0.1
8 8 0.1
8.5 6 0.1
10.5 8 0.1
8.5 10 0.1
6.5 8 0.1
8.5 5 0.1
11.5 8 0.1
8.5 11 0.1
5.5 8 0.1
8.53923 7.50154 0.1
8.57822 7.50616 0.1
8.61672 7.51382 0.1
8.65451 7.52447 0.1
8.69134 7.53806 0.1
8.727 7.5545 0.1
8.76125 7.57368 0.1
8.79389 7.59549 0.1
8.82472 7.6198 0.1
8.85355 7.64645 0.1
8.8802 7.67528 0.1
8.90451 7.70611 0.1
8.92632 7.73875 0.1
8.9455 7.773 0.1
8.96194 7.80866 0.1
8.97553 7.84549 0.1
8.98618 7.88328 0.1
8.99384 7.92178 0.1
8.99846 7.96077 0.1
8.51963 7.50039 0.1
8.55877 7.50347 0.1
8.59755 7.50961 0.1
8.63572 7.51877 0.1
8.67306 7.5309 0.1
8.70933 7.54593 0.1
8.74431 7.56375 0.1
8.77779 7.58427 0.1
8.80955 7.60734 0.1
8.8394 7.63284 0.1
8.86716 7.6606 0.1
8.89266 7.69045 0.1
8.91573 7.72221 0.1
8.93625 7.75569 0.1
8.95407 7.79067 0.1
8.9691 7.82694 0.1
8.98123 7.86428 0.1
8.99039 7.90245 0.1
8.99653 7.94123 0.1
8.99961 7.98037 0.1
8.99846 8.03923 0.1
8.99384 8.07822 0.1
8.98618 8.11672 0.1
8.97553 8.15451 0.1
8.96194 8.19134 0.1
8.9455 8.227 0.1
8.92632 8.26125 0.1
8.90451 8.29389 0.1
8.8802 8.32472 0.1
8.85355 8.35355 0.1
8.82472 8.3802 0.1
8.79389 8.40451 0.1
8.76125 8.42632 0.1
8.727 8.4455 0.1
8.69134 8.46194 0.1
8.65451 8.47553 0.1
8.61672 8.48618 0.1
8.57822 8.49384 0.1
8.53923 8.49846 0.1
8.99961 8.01963 0.1
8.99653 8.05877 0.1
8.99039 8.09755 0.1
8.98123 8.13572 0.1
8.9691 8.17306 0.1
8.95407 8.20933 0.1
8.93625 8.24431 0.1
8.91573 8.27779 0.1
8.89266 8.30955 0.1
8.86716 8.3394 0.1
8.8394 8.36716 0.1
8.80955 8.39266 0.1
8.77779 8.41573 0.1
8.74431 8.43625 0.1
8.70933 8.45407 0.1
8.67306 8.4691 0.1
8.63572 8.48123 0.1
8.59755 8.49039 0.1
8.55877 8.49653 0.1
8.51963 8.49961 0.1
8.46077 8.49846 0.1
8.42178 8.49384 0.1
8.38328 8.48618 0.1
8.34549 8.47553 0.1
8.30866 8.46194 0.1
8.273 8.4455 0.1
8.23875 8.42632 0.1
8.20611 8.40451 0.1
8.17528 8.3802 0.1
8.14645 8.35355 0.1
8.1198 8.32472 0.1
8.09549 8.29389 0.1
8.07368 8.26125 0.1
8.0545 8.227 0.1
8.03806 8.19134 0.1
8.02447 8.15451 0.1
8.01382 8.11672 0.1
8.00616 8.07822 0.1
8.00154 8.03923 0.1
8.48037 8.49961 0.1
8.44123 8.49653 0.1
8.40245 8.49039 0.1
8.36428 8.48123 0.1
8.32694 8.4691 0.1
8.29067 8.45407 0.1
8.25569 8.43625 0.1
8.22221 8.41573 0.1
8.19045 8.39266 0.1
8.1606 8.36716 0.1
8.13284 8.3394 0.1
8.10734 8.30955 0.1
8.08427 8.27779 0.1
8.06375 8.24431 0.1
8.04593 8.20933 0.1
8.0309 8.17306 0.1
8.01877 8.13572 0.1
8.00961 8.09755 0.1
8.00347 8.05877 0.1
8.00039 8.01963 0.1
8.00154 7.96077 0.1
8.00616 7.92178 0.1
8.01382 7.88328 0.1
8.02447 7.84549 0.1
8.03806 7.80866 0.1
8.0545 7.773 0.1
8.07368 7.73875 0.1
8.09549 7.70611 0.1
8.1198 7.67528 0.1
8.14645 7.64645 0.1
8.17528 7.6198 0.1
8.20611 7.59549 0.1
8.23875 7.57368 0.1
8.273 7.5545 0.1
8.30866 7.53806 0.1
8.34549 7.52447 0.1
8.38328 7.51382 0.1
8.42178 7.50616 0.1
8.46077 7.50154 0.1
8.00039 7.98037 0.1
8.00347 7.94123 0.1
8.00961 7.90245 0.1
8.01877 7.86428 0.1
8.0309 7.82694 0.1
8.04593 7.79067 0.1
8.06375 7.75569 0.1
8.08427 7.72221 0.1
8.10734 7.69045 0.1
8.13284 7.6606 0.1
8.1606 7.63284 0.1
8.19045 7.60734 0.1
8.22221 7.58427 0.1
8.25569 7.56375 0.1
8.29067 7.54593 0.1
8.32694 7.5309 0.1
8.36428 7.51877 0.1
8.40245 7.50961 0.1
8.44123 7.50347 0.1
8.48037 7.50039 0.1
8.72393 6.01258 0.1
8.94504 6.05014 0.1
9.16056 6.11223 0.1
9.36777 6.19806 0.1
9.56406 6.30655 0.1
9.74698 6.43634 0.1
9.91421 6.58579 0.1
10.0637 6.75302 0.1
10.1934 6.93594 0.1
10.3019 7.13223 0.1
10.3878 7.33944 0.1
10.4499 7.55496 0.1
10.4874 7.77607 0.1
8.61214 6.00315 0.1
8.83501 6.02826 0.1
9.05367 6.07817 0.1
9.26537 6.15224 0.1
9.46744 6.24955 0.1
9.65734 6.36888 0.1
9.83269 6.50872 0.1
9.99128 6.66731 0.1
10.1311 6.84266 0.1
10.2504 7.03256 0.1
10.3478 7.23463 0.1
10.4218 7.44633 0.1
10.4717 7.66499 0.1
10.4969 7.88786 0.1
10.4874 8.22393 0.1
10.4499 8.44504 0.1
10.3878 8.66056 0.1
10.3019 8.86777 0.1
10.1934 9.06406 0.1
10.0637 9.24698 0.1
9.91421 9.41421 0.1
9.74698 9.56366 0.1
9.56406 9.69345 0.1
9.36777 9.80194 0.1
9.16056 9.88777 0.1
8.94504 9.94986 0.1
8.72393 9.98742 0.1
10.4969 8.11214 0.1
10.4717 8.33501 0.1
10.4218 8.55367 0.1
10.3478 8.76537 0.1
10.2504 8.96744 0.1
10.1311 9.15734 0.1
9.99128 9.33269 0.1
9.83269 9.49128 0.1
9.65734 9.63112 0.1
9.46744 9.75045 0.1
9.26537 9.84776 0.1
9.05367 9.92183 0.1
8.83501 9.97174 0.1
8.61214 9.99685 0.1
8.27607 9.98742 0.1
8.05496 9.94986 0.1
7.83944 9.88777 0.1
7.63223 9.80194 0.1
7.43594 9.69345 0.1
7.25302 9.56366 0.1
7.08579 9.41421 0.1
6.93634 9.24698 0.1
6.80655 9.06406 0.1
6.69806 8.86777 0.1
6.61223 8.66056 0.1
6.55014 8.44504 0.1
6.51258 8.22393 0.1
8.38786 9.99685 0.1
8.16499 9.97174 0.1
7.94633 9.92183 0.1
7.73463 9.84776 0.1
7.53256 9.75045 0.1
7.34266 9.63112 0.1
7.16731 9.49128 0.1
7.00872 9.33269 0.1
6.86888 9.15734 0.1
6.74955 8.96744 0.1
6.65224 8.76537 0.1
6.57817 8.55367 0.1
6.52826 8.33501 0.1
6.50315 8.11214 0.1
6.51258 7.77607 0.1
6.55014 7.55496 0.1
6.61223 7.33944 0.1
6.69806 7.13223 0.1
6.80655 6.93594 0.1
6.93634 6.75302 0.1
7.08579 6.58579 0.1
7.25302 6.43634 0.1
7.43594 6.30655 0.1
7.63223 6.19806 0.1
7.83944 6.11223 0.1
8.05496 6.05014 0.1
8.27607 6.01258 0.1
6.50315 7.88786 0.1
6.52826 7.66499 0.1
6.57817 7.44633 0.1
6.65224 7.23463 0.1
6.74955 7.03256 0.1
6.86888 6.84266 0.1
7.00872 6.66731 0.1
7.16731 6.50872 0.1
7.34266 6.36888 0.1
7.53256 6.24955 0.1
7.73463 6.15224 0.1
7.94633 6.07817 0.1
8.16499 6.02826 0.1
8.38786 6.00315 0.1
8.83589 5.01886 0.1
9.16756 5.07522 0.1
9.49084 5.16835 0.1
9.80165 5.29709 0.1
10.0961 5.45983 0.1
10.3705 5.65451 0.1
10.6213 5.87868 0.1
10.8455 6.12953 0.1
11.0402 6.4039 0.1
11.2029 6.69835 0.1
11.3316 7.00916 0.1
11.4248 7.33244 0.1
11.4811 7.66411 0.1
8.66821 5.00472 0.1
9.00252 5.04239 0.1
9.33051 5.11725 0.1
9.64805 5.22836 0.1
9.95116 5.37433 0.1
10.236 5.55332 0.1
10.499 5.76307 0.1
10.7369 6.00096 0.1
10.9467 6.26399 0.1
11.1257 6.54884 0.1
11.2716 6.85195 0.1
11.3828 7.16949 0.1
11.4576 7.49748 0.1
11.4953 7.83179 0.1
11.4811 8.33589 0.1
11.4248 8.66756 0.1
11.3316 8.99084 0.1
11.2029 9.30165 0.1
11.0402 9.5961 0.1
10.8455 9.87047 0.1
10.6213 10.1213 0.1
10.3705 10.3455 0.1
10.0961 10.5402 0.1
9.80165 10.7029 0.1
9.49084 10.8316 0.1
9.16756 10.9248 0.1
8.83589 10.9811 0.1
11.4953 8.16821 0.1
11.4576 8.50252 0.1
11.3828 8.83051 0.1
11.2716 9.14805 0.1
11.1257 9.45116 0.1
10.9467 9.73601 0.1
10.7369 9.99904 0.1
10.499 10.2369 0.1
10.236 10.4467 0.1
9.95116 10.6257 0.1
9.64805 10.7716 0.1
9.33051 10.8828 0.1
9.00252 10.9576 0.1
8.66821 10.9953 0.1
8.16411 10.9811 0.1
7.83244 10.9248 0.1
7.50916 10.8316 0.1
7.19835 10.7029 0.1
6.9039 10.5402 0.1
6.62953 10.3455 0.1
6.37868 10.1213 0.1
6.15451 9.87047 0.1
5.95983 9.5961 0.1
5.79709 9.30165 0.1
5.66835 8.99084 0.1
5.57522 8.66756 0.1
5.51886 8.33589 0.1
8.33179 10.9953 0.1
7.99748 10.9576 0.1
7.66949 10.8828 0.1
7.35195 10.7716 0.1
7.04884 10.6257 0.1
6.76399 10.4467 0.1
6.50096 10.2369 0.1
6.26307 9.99904 0.1
6.05332 9.73601 0.1
5.87433 9.45116 0.1
5.72836 9.14805 0.1
5.61725 8.83051 0.1
5.54239 8.50252 0.1
5.50472 8.16821 0.1
5.51886 7.66411 0.1
5.57522 7.33244 0.1
5.66835 7.00916 0.1
5.79709 6.69835 0.1
5.95983 6.4039 0.1
6.15451 6.12953 0.1
6.37868 5.87868 0.1
6.62953 5.65451 0.1
6.9039 5.45983 0.1
7.19835 5.29709 0.1
7.50916 5.16835 0.1
7.83244 5.07522 0.1
8.16411 5.01886 0.1
5.50472 7.83179 0.1
5.54239 7.49748 0.1
5.61725 7.16949 0.1
5.72836 6.85195 0.1
5.87433 6.54884 0.1
6.05332 6.26399 0.1
6.26307 6.00096 0.1
6.50096 5.76307 0.1
6.76399 5.55332 0.1
7.04884 5.37433 0.1
7.35195 5.22836 0.1
7.66949 5.11725 0.1
7.99748 5.04239 0.1
8.33179 5.00472 0.1
8.5 6.1 0.1
8.5 6.2 0.1
8.5 6.3 0.1
8.5 6.4 0.1
8.5 6.5 0.1
8.5 6.6 0.1
8.5 6.7 0.1
8.5 6.8 0.1
8.5 6.9 0.1
8.5 7 0.1
8.5 7.1 0.1
8.5 7.2 0.1
8.5 7.3 0.1
8.5 7.4 0.1
8.5 6.05 0.1
8.5 6.15 0.1
8.5 6.25 0.1
8.5 6.35 0.1
8.5 6.45 0.1
8.5 6.55 0.1
8.5 6.65 0.1
8.5 6.75 0.1
8.5 6.85 0.1
8.5 6.95 0.1
8.5 7.05 0.1
8.5 7.15 0.1
8.5 7.25 0.1
8.5 7.35 0.1
8.5 7.45 0.1
9.1 8 0.1
9.2 8 0.1
9.3 8 0.1
9.4 8 0.1
9.5 8 0.1
9.6 8 0.1
9.7 8 0.1
9.8 8 0.1
9.9 8 0.1
10 8 0.1
10.1 8 0.1
10.2 8 0.1
10.3 8 0.1
10.4 8 0.1
9.05 8 0.1
9.15 8 0.1
9.25 8 0.1
9.35 8 0.1
9.45 8 0.1
9.55 8 0.1
9.65 8 0.1
9.75 8 0.1
9.85 8 0.1
9.95 8 0.1
10.05 8 0.1
10.15 8 0.1
10.25 8 0.1
10.35 8 0.1
10.45 8 0.1
8.5 8.6 0.1
8.5 8.7 0.1
8.5 8.8 0.1
8.5 8.9 0.1
8.5 9 0.1
8.5 9.1 0.1
8.5 9.2 0.1
8.5 9.3 0.1
8.5 9.4 0.1
8.5 9.5 0.1
8.5 9.6 0.1
8.5 9.7 0.1
8.5 9.8 0.1
8.5 9.9 0.1
8.5 8.55 0.1
8.5 8.65 0.1
8.5 8.75 0.1
8.5 8.85 0.1
8.5 8.95 0.1
8.5 9.05 0.1
8.5 9.15 0.1
8.5 9.25 0.1
8.5 9.35 0.1
8.5 9.45 0.1
8.5 9.55 0.1
8.5 9.65 0.1
8.5 9.75 0.1
8.5 9.85 0.1
8.5 9.95 0.1
6.6 8 0.1
6.7 8 0.1
6.8 8 0.1
6.9 8 0.1
7 8 0.1
7.1 8 0.1
7.2 8 0.1
7.3 8 0.1
7.4 8 0.1
7.5 8 0.1
7.6 8 0.1
7.7 8 0.1
7.8 8 0.1
7.9 8 0.1
6.55 8 0.1
6.65 8 0.1
6.75 8 0.1
6.85 8 0.1
6.95 8 0.1
7.05 8 0.1
7.15 8 0.1
7.25 8 0.1
7.35 8 0.1
7.45 8 0.1
7.55 8 0.1
7.65 8 0.1
7.75 8 0.1
7.85 8 0.1
7.95 8 0.1
8.5 5.33333 0.1
8.5 5.66667 0.1
8.5 5.16667 0.1
8.5 5.5 0.1
8.5 5.83333 0.1
10.8333 8 0.1
11.1667 8 0.1
10.6667 8 0.1
11 8 0.1
11.3333 8 0.1
8.5 10.3333 0.1
8.5 10.6667 0.1
8.5 10.1667 0.1
8.5 10.5 0.1
8.5 10.8333 0.1
5.83333 8 0.1
6.16667 8 0.1
5.66667 8 0.1
6 8 0.1
6.33333 8 0.1
9.42912 7.36778 0.1
8.98107 7.14335 0.1
9.12034 7.43554 0.1
9.01433 6.66213 0.1
9.17936 7.68419 0.1
9.85922 7.57796 0.1
8.76256 7.28829 0.1
9.38426 6.90812 0.1
8.92185 7.46489 0.1
9.02088 7.58931 0.1
9.52889 7.66584 0.1
8.77428 6.9572 0.1
9.79217 7.11621 0.1
9.14334 7.82286 0.1
9.23019 7.21456 0.1
8.76547 7.42416 0.1
8.78426 6.45 0.1
10.05 7.73427 0.1
9.02751 7.71032 0.1
9.75 7.78105 0.1
8.64858 7.43517 0.1
9.37911 7.79108 0.1
9.35145 7.59348 0.1
8.67575 6.75137 0.1
8.82688 7.51565 0.1
8.89755 7.56932 0.1
9.00894 6.90235 0.1
9.31754 6.58936 0.1
8.99619 7.31062 0.1
8.67317 7.1143 0.1
8.70809 6.25 0.1
10.2334 7.80568 0.1
9.45268 7.13775 0.1
[...]
    <PointData>
      <DataArray type="Float64" NumberOfComponents="3" Name="Velocity" format="ascii">
0 0 0
0 0 0
0 0 0
0 0 0
1.04578 0.00290569 0
0.939675 5.98254e-06 0
1.04615 -0.0033347 0
0.938207 4.24048e-06 0
1.03234 -0.000588478 0
0.973347 -2.33676e-06 0
1.03196 0.000505578 0
0.97569 -1.83792e-05 0
0 0 0
0 0 0
0 0 0
0 0 0
0 0 0
0 0 0
0 0 0
0 0 0
0 0 0
0 0 0
0 0 0
0 0 0
0 0 0
0 0 0
0 0 0
0 0 0
0 0 0
0 0 0
0 0 0
0 0 0
0 0 0
0 0 0
0 0 0
0 0 0
0 0 0
0 0 0
0 0 0
0 0 0
0 0 0
0 0 0
0 0 0
0 0 0
0 0 0
0 0 0
0 0 0
0 0 0
0 0 0
0 0 0
0 0 0
0 0 0
0 0 0
0 0 0
0 0 0
0 0 0
0 0 0
0 0 0
0 0 0
0 0 0
0 0 0
0 0 0
0 0 0
0 0 0
0 0 0
0 0 0
0 0 0
0 0 0
0 0 0
0 0 0
0 0 0
0 0 0
0 0 0
0 0 0
0 0 0
0 0 0
0 0 0
0 0 0
0 0 0
0 0 0
0 0 0
0 0 0
0 0 0
0 0 0
0 0 0
0 0 0
0 0 0
0 0 0
0 0 0
0 0 0
0 0 0
0 0 0
0 0 0
0 0 0
0 0 0
0 0 0
0 0 0
0 0 0
0 0 0
0 0 0
0 0 0
0 0 0
0 0 0
0 0 0
0 0 0
0 0 0
0 0 0
0 0 0
0 0 0
0 0 0
0 0 0
0 0 0
0 0 0
0 0 0
0 0 0
0 0 0
0 0 0
0 0 0
0 0 0
0 0 0
0 0 0
0 0 0
0 0 0
0 0 0
0 0 0
0 0 0
0 0 0
0 0 0
0 0 0
0 0 0
0 0 0
0 0 0
0 0 0
0 0 0
0 0 0
0 0 0
0 0 0
0 0 0
0 0 0
0 0 0
0 0 0
0 0 0
0 0 0
0 0 0
0 0 0
0 0 0
0 0 0
0 0 0
0 0 0
0 0 0
0 0 0
0 0 0
0 0 0
0 0 0
0 0 0
0 0 0
0 0 0
0 0 0
0 0 0
0 0 0
0 0 0
0 0 0
0 0 0
0 0 0
0 0 0
0 0 0
0 0 0
0 0 0
1.05153 0.0130614 0
1.05122 0.0247518 0
1.04934 0.0366605 0
1.04224 0.0496678 0
1.0308 0.0582341 0
1.01793 0.063865 0
1.00421 0.0649997 0
0.992249 0.0616219 0
0.978089 0.0579785 0
0.963923 0.0517944 0
0.952643 0.0425118 0
0.944515 0.0299015 0
0.940742 0.0150598 0
1.04908 0.00570429 0
1.05159 0.0189294 0
1.05046 0.0313537 0
1.04686 0.0436281 0
1.03721 0.0536189 0
1.02477 0.0610967 0
1.01196 0.0652067 0
0.997082 0.0654534 0
0.983121 0.0617088 0
0.969356 0.0560523 0
0.957034 0.0477563 0
0.947989 0.0364267 0
0.941915 0.0227588 0
0.938906 0.00803736 0
0.940661 -0.015089 0
0.944454 -0.029806 0
0.952476 -0.0423614 0
0.964158 -0.0515092 0
0.978583 -0.0581696 0
0.99124 -0.0616066 0
1.00512 -0.066197 0
1.01903 -0.0638435 0
1.03169 -0.0585876 0
1.04249 -0.0489544 0
1.05019 -0.0381947 0
1.05323 -0.0262074 0
1.05001 -0.0129136 0
0.938914 -0.00801032 0
0.941936 -0.0228259 0
0.948035 -0.0364411 0
0.957 -0.047686 0
0.968938 -0.0560412 0
0.983051 -0.0614803 0
0.998335 -0.0657214 0
1.0126 -0.066138 0
1.02596 -0.0624243 0
1.03864 -0.0544112 0
1.04824 -0.0440169 0
1.05207 -0.0315442 0
1.05237 -0.0192149 0
1.04916 -0.00543326 0
1.04552 0.0111944 0
1.0423 0.0230541 0
1.03718 0.034086 0
1.0289 0.0428057 0
1.01808 0.0478089 0
1.00628 0.0520327 0
0.9951 0.0563149 0
0.983078 0.0580475 0
0.971321 0.0546973 0
0.960761 0.0463435 0
0.952297 0.0349428 0
0.944645 0.0226151 0
0.939863 0.0112147 0
1.0456 0.00509212 0
1.04455 0.0166657 0
1.04002 0.0296224 0
1.03248 0.0402534 0
1.02299 0.0469588 0
1.01215 0.0502347 0
1.00144 0.0536596 0
0.988868 0.0575255 0
0.976584 0.0575951 0
0.964885 0.051481 0
0.955995 0.041069 0
0.948546 0.028843 0
0.942188 0.0168408 0
0.93853 0.00569775 0
0.939881 -0.011189 0
0.944701 -0.022584 0
0.952288 -0.0350108 0
0.960777 -0.0463686 0
0.970746 -0.0547878 0
0.983031 -0.0581579 0
0.995289 -0.0564977 0
1.00646 -0.0517693 0
1.01739 -0.0480366 0
1.02869 -0.0426521 0
1.03772 -0.0339785 0
1.04291 -0.0227829 0
1.0455 -0.0111608 0
0.93853 -0.00570314 0
0.942161 -0.0168319 0
0.94853 -0.0288123 0
0.956025 -0.0411074 0
0.965041 -0.0514876 0
0.976726 -0.057422 0
0.989296 -0.0577812 0
1.00093 -0.0536866 0
1.01218 -0.0500128 0
1.02264 -0.0465672 0
1.03275 -0.0404811 0
1.04031 -0.0296859 0
1.04437 -0.0168579 0
1.04614 -0.00479124 0
1.03229 0.00585347 0
1.02964 0.0123065 0
1.02623 0.0178567 0
1.0215 0.0222744 0
1.0158 0.0257952 0
1.00903 0.0282229 0
1.0031 0.0289349 0
0.99721 0.0280482 0
0.990468 0.0261354 0
0.984825 0.0224647 0
0.980516 0.017564 0
0.976763 0.0120826 0
0.974062 0.00646514 0
1.03239 0.00278282 0
1.03104 0.00889349 0
1.0282 0.015228 0
1.02435 0.0201189 0
1.01909 0.0240654 0
1.0128 0.0270481 0
1.00624 0.0288046 0
1.00041 0.028533 0
0.993909 0.0271468 0
0.987501 0.0245143 0
0.982627 0.0200817 0
0.978586 0.0148556 0
0.975287 0.00938828 0
0.973534 0.00337947 0
0.974062 -0.00646043 0
0.976754 -0.0120736 0
0.980517 -0.0175439 0
0.98488 -0.0225177 0
0.99047 -0.0260398 0
0.99719 -0.0279331 0
1.00319 -0.0289166 0
1.00922 -0.0281881 0
1.01604 -0.0257563 0
1.02166 -0.0222882 0
1.02614 -0.01782 0
1.02945 -0.0123616 0
1.03186 -0.00583662 0
0.973532 -0.00337506 0
0.975278 -0.00937195 0
0.978568 -0.0148448 0
0.982661 -0.0200744 0
0.987496 -0.024488 0
0.99388 -0.0271813 0
1.00037 -0.0285276 0
1.00612 -0.0287846 0
1.01274 -0.0270962 0
1.01905 -0.0241238 0
1.02414 -0.0201265 0
1.02835 -0.0152932 0
1.03093 -0.00907774 0
1.03211 -0.0026463 0
1.03064 0.00675475 0
1.02805 0.0125632 0
1.02496 0.0175416 0
1.0209 0.0222902 0
1.01533 0.0260744 0
1.00901 0.0280887 0
1.00313 0.0283776 0
0.996838 0.0271136 0
0.990744 0.0254127 0
0.985317 0.024193 0
0.980076 0.0204867 0
0.976742 0.0140977 0
0.975882 0.00674622 0
1.0314 0.00384577 0
1.02929 0.00952333 0
1.0268 0.0150526 0
1.02334 0.0200566 0
1.01837 0.0243411 0
1.01229 0.0272063 0
1.00606 0.0284219 0
1.00008 0.0276945 0
0.993802 0.025903 0
0.988252 0.0247434 0
0.982824 0.022605 0
0.978074 0.0175165 0
0.976125 0.0104845 0
0.97572 0.00338702 0
0.975843 -0.00676502 0
0.976657 -0.0141571 0
0.980048 -0.0204674 0
0.985395 -0.0242223 0
0.99074 -0.0255982 0
0.996713 -0.0270571 0
1.0029 -0.0281414 0
1.00903 -0.0281106 0
1.01534 -0.0260353 0
1.02113 -0.0223325 0
1.0253 -0.0177128 0
1.02793 -0.0125323 0
1.03079 -0.00699038 0
0.975707 -0.00340912 0
0.976157 -0.0105673 0
0.978134 -0.0175492 0
0.982934 -0.0224918 0
0.988303 -0.0247613 0
0.993819 -0.0259649 0
1 -0.0276273 0
1.00603 -0.0284022 0
1.01221 -0.0272086 0
1.01835 -0.0242788 0
1.02332 -0.0200005 0
1.02673 -0.0152011 0
1.02952 -0.00952963 0
1.03165 -0.00363913 0
1.0841 -0.0016087 0
1.09222 -0.00111772 0
1.10261 -0.0013268 0
1.11503 -0.00174476 0
1.12945 -0.00228145 0
1.14766 -0.00285377 0
1.17008 -0.00368644 0
1.19818 -0.00475621 0
1.2345 -0.00635115 0
1.28247 -0.00872511 0
1.34668 -0.0131027 0
1.43612 -0.0203199 0
1.5712 -0.0370777 0
1.6937 -0.0396987 0
1.07566 0.000467938 0
1.0891 -0.00109457 0
1.09733 -0.00127922 0
1.10854 -0.0016348 0
1.1219 -0.00198056 0
1.13813 -0.00255392 0
1.15812 -0.00322688 0
1.18313 -0.00417262 0
1.21505 -0.00547676 0
1.25649 -0.00738073 0
1.3114 -0.0104644 0
1.3878 -0.0157704 0
1.49536 -0.0248863 0
1.65025 -0.0528696 0
1.79254 -0.125451 0
0.195374 0.0041465 0
0.424294 -0.000337805 0
0.561201 0.000172656 0
0.657665 0.000120122 0
0.725913 9.43052e-05 0
0.77499 5.10645e-05 0
0.813136 0.000129612 0
0.842145 0.000109231 0
0.865318 2.73945e-05 0
0.883671 2.42844e-05 0
0.899011 2.00214e-05 0
0.91164 1.69784e-05 0
0.922125 9.89477e-06 0
0.931376 9.25476e-06 0
0.04419 -0.00161059 0
0.325317 -0.00163384 0
0.499398 0.000424312 0
0.613404 0.000392124 0
0.694275 0.000125985 0
0.752206 0.000117924 0
0.795225 9.98831e-05 0
0.828489 5.81842e-05 0
0.854358 1.58887e-05 0
0.87498 2.81233e-05 0
0.891692 1.8538e-05 0
0.905578 2.45503e-05 0
0.917102 1.1237e-05 0
0.926941 9.90828e-06 0
0.935577 2.39475e-05 0
1.72545 0.0509241 0
1.58151 0.0390641 0
1.43461 0.0197399 0
1.34686 0.0124235 0
1.28275 0.00893109 0
1.23445 0.00633307 0
1.19831 0.0046781 0
1.17024 0.00373219 0
1.14774 0.00291556 0
1.12947 0.00228503 0
1.11502 0.0017689 0
1.10271 0.00117291 0
1.09238 0.000853145 0
1.08409 0.00163839 0
1.78569 0.13403 0
1.63775 0.0375861 0
1.49584 0.0229835 0
1.38819 0.0155618 0
1.31081 0.0105317 0
1.25645 0.00740173 0
1.21501 0.00547539 0
1.18296 0.00422208 0
1.15803 0.00325612 0
1.13814 0.00259485 0
1.12189 0.00196666 0
1.10861 0.00156336 0
1.09718 0.00102666 0
1.0892 0.00114178 0
1.07491 -0.000452019 0
0.93239 9.56566e-06 0
0.924545 -3.98916e-06 0
0.914901 -3.83886e-06 0
0.903103 -3.91398e-06 0
0.888579 -4.83869e-06 0
0.871093 -4.02737e-06 0
0.849172 -4.52016e-06 0
0.822223 -5.57713e-06 0
0.786927 -7.07482e-06 0
0.741653 -9.03738e-06 0
0.679134 -1.12046e-05 0
0.594039 -1.01081e-05 0
0.472689 2.38956e-05 0
0.27358 0.00013962 0
0.935527 1.0353e-05 0
0.928713 3.85855e-06 0
0.919954 -4.26674e-06 0
0.909275 -2.09869e-06 0
0.896207 -5.52725e-06 0
0.880305 -4.00574e-06 0
0.860783 -4.04031e-06 0
0.836539 -5.00785e-06 0
0.805758 -6.22093e-06 0
0.765893 -7.8963e-06 0
0.712809 -1.03774e-05 0
0.640032 -1.45805e-05 0
0.539164 -2.67279e-05 0
0.384815 -5.06038e-05 0
0.149176 -0.000251835 0
1.04111 -0.00102138 0
1.0576 -0.000899644 0
1.0352 -0.00086698 0
1.04794 -0.000927044 0
1.04853 -0.000854172 0
0.954175 1.20708e-05 0
0.965918 2.0584e-06 0
0.94736 -2.38747e-06 0
0.960855 5.1206e-06 0
0.969867 5.64306e-06 0
1.05776 0.00175941 0
1.04068 0.000854087 0
1.04837 0.000802195 0
1.04816 0.000854954 0
1.03534 0.000652269 0
0.966355 -1.27185e-05 0
0.952947 2.22942e-05 0
0.971544 -4.42571e-06 0
0.959951 -1.14156e-05 0
0.945815 -4.76146e-06 0
0.930076 0.206585 0
1.16312 0.243126 0
0.978958 0.394597 0
1.10899 0.0882016 0
0.694567 0.393959 0
0.894776 0.0787075 0
1.402 0.308712 0
1.0391 0.136789 0
1.1149 0.557222 0
0.893482 0.614938 0
0.815538 0.142875 0
1.21795 0.111968 0
0.967915 0.105852 0
0.45951 0.344329 0
1.02936 0.240655 0
1.40791 0.525088 0
1.11216 0.037407 0
0.901471 0.0380411 0
0.650452 0.72703 0
0.844299 0.0600935 0
1.91761 0.395924 0
0.699988 0.160171 0
0.814059 0.248995 0
1.17492 0.0439493 0
1.45012 0.846031 0
1.19578 0.868368 0
1.13205 0.14198 0
1.06069 0.0889394 0
1.13407 0.362801 0
1.32668 0.11895 0
1.09449 0.0198877 0
0.918731 0.0205806 0
0.993692 0.167851 0
0.888466 0.142403 0
0.944507 0.0731076 0
1.00614 0.0994962 0
0.890268 0.844503 0
1.29675 0.447084 0
0.92689 0.286896 0
1.08148 0.0563295 0
0.845641 0.429376 0
0.77179 0.0771974 0
1.08721 0.187113 0
0.946451 0.148633 0
0.208779 0.332717 0
0.393196 0.608378 0
0.930971 0.105307 0
1.54392 0.174187 0
1.26671 0.227177 0
1.07937 0.118151 0
0.546022 0.17548 0
1.70271 0.770788 0
1.15417 0.0969428 0
0.933446 0.0457383 0
1.1388 0.0281903 0
0.878597 0.0353143 0
1.04121 0.301353 0
0.988754 0.514585 0
1.24333 0.0625341 0
0.874668 0.107017 0
1.19148 0.166217 0
1.26694 0.884383 0
1.12246 0.018598 0
0.861664 0.174636 0
1.03699 0.180345 0
2.03177 0.148961 0
1.13364 0.0604525 0
1.03304 0.0980358 0
1.21291 0.304174 0
0.776104 0.523834 0
0.99449 0.12106 0
0.555759 0.668332 0
0.801468 0.732521 0
0.892903 0.0179253 0
0.732427 0.242417 0
0.787211 0.33891 0
0.521621 0.459881 0
1.11533 0.473871 0
1.08274 0.264298 0
0.987204 0.0825472 0
0.711019 0.0697206 0
0.80276 0.0420151 0
0.969662 0.2401 0
0.772411 0.185959 0
0.96774 0.0846733 0
1.26862 0.512382 0
0.375879 0.589813 0
0.876633 0.060438 0
1.09441 0.0384832 0
1.51281 0.828599 0
0.398162 0.207341 0
1.36429 0.463168 0
0.914102 0.0580818 0
1.2124 0.0290555 0
1.41272 0.0938639 0
1.00682 0.627872 0
1.50441 0.345455 0
0.0635253 0.172346 0
0.15228 0.36896 0
0.584435 0.30116 0
1.0827 0.00943437 0
0.92807 0.0116655 0
1.30225 0.049882 0
1.08429 0.0759584 0
1.05998 0.0623752 0
0.903532 0.359825 0
0.820453 0.078786 0
1.0688 0.148329 0
1.03486 0.0767661 0
1.14253 0.186605 0
0.741043 0.62159 0
0.839984 0.0291044 0
1.10909 0.0598135 0
0.270387 0.392936 0
1.25343 0.155233 0
0.88113 0.232124 0
1.38718 0.195388 0
1.15885 0.0208038 0
0.982978 0.334533 0
0.906477 0.0117468 0
1.10661 0.0111043 0
1.04615 0.250295 0
0.616175 0.095026 0
0.754092 0.126481 0
0.902517 0.508391 0
1.54688 -0.000626279 0
0.924934 0.0828225 0
1.27846 0.18425 0
0.969149 0.192818 0
1.05268 0.806566 0
0.467772 0.506993 0
1.05633 0.379697 0
0.775904 0.71379 0
1.23702 0.741254 0
1.19696 0.0697223 0
1.16756 0.1274 0
1.40155 0.422321 0
1.02108 0.118033 0
0.0141413 0.0415147 0
0.91773 0.00922869 0
1.09636 0.00786058 0
1.01566 0.0807562 0
1.61942 0.145764 0
1.47278 0.70299 0
0.9194 0.162549 0
1.10705 0.113739 0
0.949342 0.0934753 0
0.857275 0.568862 0
0.918709 0.0363316 0
0.145875 0.300214 0
1.08264 0.00566755 0
0.934402 0.0072079 0
0.856152 0.134354 0
1.26964 0.100607 0
0.876129 0.015129 0
1.20772 0.501198 0
1.10607 0.0251805 0
0.99993 0.204028 0
1.13891 0.0122253 0
0.947129 0.0564885 0
0.861533 0.291159 0
0.975477 0.139337 0
1.0516 0.116149 0
0.0450109 0.160276 0
1.13271 0.290921 0
1.01146 0.142383 0
0.906037 0.10744 0
0.997471 0.278772 0
1.74592 0.559202 0
0.931371 0.0274216 0
1.28991 0.330308 0
1.00132 0.0809644 0
0.757418 0.038258 0
0.907469 0.0251779 0
0.923435 0.130615 0
0.948704 0.12033 0
1.07334 0.0417322 0
0.98485 0.100677 0
0.777597 0.336677 0
1.08069 0.0254814 0
0.635809 0.211273 0
0.8597 0.020847 0
0.963002 0.0675542 0
0.543981 0.634445 0
1.32709 0.247115 0
0.932336 0.063324 0
1.49463 0.0631459 0
1.1828 0.0170327 0
0.239062 0.179768 0
1.2068 0.398123 0
1.10127 0.150822 0
0.827091 0.198457 0
1.06924 0.218994 0
1.04768 0.068984 0
0.926789 0.241846 0
0.894517 0.0545901 0
1.16007 0.0712166 0
0.932965 0.441534 0
1.14878 0.0448451 0
1.20395 0.213547 0
1.13332 0.082805 0
1.22251 0.606404 0
0.89412 0.18634 0
0.508156 0.0866416 0
1.1804 0.0958984 0
1.01853 0.44542 0
1.12722 0.0429868 0
0.798168 0.106571 0
1.08962 0.0959649 0
1.11198 0.230609 0
0.497685 0.258791 0
0.772309 0.424576 0
0.860808 0.0806884 0
1.47877 0.255441 0
1.3604 0.0439156 0
1.04844 0.561331 0
1.30641 0.184478 0
0.945117 0.563013 0
1.25434 0.0248612 0
1.10551 0.0709049 0
0.859643 0.0413848 0
1.0887 0.325321 0
0.572056 0.320968 0
1.13244 0.11035 0
0.979125 0.0738429 0
0.650308 0.556343 0
1.15925 0.155557 0
0.923759 0.732763 0
0.542657 0.423139 0
0.838682 0.108328 0
0.946382 0.174766 0
0.678559 0.302107 0
1.09593 0.670617 0
1.06476 0.0534494 0
0.348942 0.433078 0
0.966039 0.164633 0
0.589329 0.740378 0
0.975616 0.0929737 0
0.967292 0.0942851 0
0.977318 0.103591 0
0.282627 0.395036 0
0.364555 0.306997 0
0.320054 0.2673 0
0.978015 0.0848077 0
0.987164 0.0922119 0
0.787938 0.0228685 0
0.806262 0.0202578 0
1.10265 0.0378806 0
1.10205 0.0477017 0
1.11146 0.0484869 0
1.62312 0.0452006 0
1.65771 0.0668748 0
0.876597 0.392822 0
0.845194 0.355468 0
0.81216 0.38481 0
0.465446 0.540296 0
0.446146 0.455555 0
0.367159 0.529096 0
0.896235 0.553998 0
0.842528 0.520245 0
0.829021 0.570557 0
1.53801 0.020832 0
1.58425 0.0934906 0
0.87626 0.157409 0
0.877654 0.181524 0
0.889808 0.163259 0
0.896608 0.0284077 0
0.885772 0.0258602 0
0.890661 0.0370633 0
1.11016 0.0734514 0
1.0972 0.0695613 0
1.09589 0.0822131 0
0.765619 0.0178246 0
0.78165 0.0404006 0
0.822685 0.0346814 0
0.826025 0.0160803 0
1.11928 0.00787075 0
1.12666 0.00864346 0
0.887892 0.00945293 0
0.895438 0.00861495 0
1.06928 0.102101 0
1.0855 0.107075 0
1.07364 0.0935744 0
0.876882 0.0474838 0
0.885919 0.0573384 0
0.885866 0.0455812 0
0.897861 0.0457746 0
1.13034 0.0229443 0
1.12564 0.0302573 0
1.13327 0.0360235 0
1.8422 0.3297 0
1.79217 0.191794 0
1.98331 0.272161 0
1.07716 0.166016 0
1.05492 0.164857 0
1.061 0.185915 0
0.939429 0.038165 0
0.944088 0.0456865 0
1.08959 0.133071 0
1.10597 0.131386 0
1.09285 0.116908 0
1.0844 0.0651716 0
1.09466 0.0585577 0
0.638295 0.355412 0
0.551395 0.371215 0
0.623219 0.430744 0
1.05706 0.102387 0
1.06471 0.118201 0
0.407992 0.382951 0
0.420509 0.278741 0
0.897623 0.123321 0
0.891253 0.108084 0
0.879968 0.124908 0
0.839926 0.0143009 0
1.20603 0.0112355 0
1.22429 0.0127309 0
1.59025 0.160931 0
1.52599 0.110698 0
1.03498 0.268784 0
1.06435 0.283485 0
1.05394 0.253809 0
0.48754 0.404037 0
0.528539 0.321432 0
0.849765 0.242065 0
0.852519 0.21743 0
0.820261 0.221451 0
1.1537 0.00822646 0
1.16513 0.00920806 0
0.772701 0.603958 0
0.846768 0.665797 0
1.14353 0.0050482 0
1.1484 0.0161807 0
0.355036 0.344622 0
0.32672 0.318466 0
1.0893 0.0468245 0
0.907585 0.173972 0
0.902929 0.153765 0
0.682475 0.0386237 0
0.715094 0.0332695 0
1.37205 0.887419 0
1.1247 0.764042 0
1.33318 0.837299 0
1.23202 0.0276174 0
1.24463 0.00843095 0
0.712789 0.20213 0
0.75327 0.211879 0
0.737444 0.175992 0
1.27996 0.273403 0
1.31159 0.288009 0
1.29502 0.237294 0
1.24775 0.318423 0
1.2444 0.267911 0
0.775295 0.248716 0
0.753773 0.292167 0
0.800693 0.289229 0
1.1525 0.52886 0
1.15885 0.583856 0
1.18751 0.538257 0
1.00156 0.478242 0
0.974 0.446435 0
0.957198 0.478594 0
0.217309 0.273573 0
0.190344 0.247282 0
1.23267 0.507528 0
1.24465 0.552791 0
0.845244 0.185904 0
0.868702 0.202707 0
0.87929 0.325747 0
0.828686 0.315402 0
1.70979 0.248734 0
1.57414 0.251422 0
1.61615 0.364662 0
1.34449 0.800599 0
1.31222 0.850525 0
1.07532 0.132819 0
1.08431 0.150635 0
0.851638 0.811812 0
0.75259 0.805484 0
0.727651 0.785557 0
0.658167 0.132459 0
0.621043 0.153389 0
0.669832 0.182968 0
1.24516 0.884908 0
1.23541 0.815299 0
0.952018 0.311504 0
0.990285 0.304378 0
0.962763 0.285737 0
1.23257 0.0886749 0
1.21848 0.0670953 0
1.20785 0.0888824 0
0.746089 0.366045 0
0.734497 0.326864 0
0.683614 0.346887 0
1.17675 0.33642 0
1.17037 0.300116 0
1.13518 0.324701 0
0.916986 0.472473 0
0.945805 0.513942 0
0.701785 0.112112 0
0.667975 0.080669 0
0.790061 0.218572 0
0.124875 0.212826 0
0.109164 0.181675 0
1.11923 0.0400469 0
1.11782 0.0285528 0
1.03867 0.156739 0
1.05285 0.143447 0
0.982096 0.259055 0
0.950714 0.262721 0
1.01388 0.175902 0
1.02225 0.160242 0
1.00329 0.154686 0
0.970602 0.121563 0
0.986407 0.130193 0
0.980526 0.114549 0
0.885124 0.0916477 0
0.899134 0.0931996 0
1.12064 0.0606992 0
1.12061 0.0699651 0
1.13419 0.0711883 0
1.24216 0.107853 0
1.25597 0.0802958 0
1.55074 0.25055 0
1.38092 0.460274 0
1.33706 0.470686 0
1.32443 0.52494 0
0.832974 0.0685412 0
0.84175 0.0804564 0
0.851985 0.0709086 0
0.719284 0.544082 0
0.726912 0.460113 0
0.673468 0.46932 0
1.18633 0.271037 0
1.213 0.254681 0
1.18481 0.229221 0
0.865812 0.120051 0
0.872913 0.139583 0
1.2334 0.221193 0
0.735448 0.0517136 0
0.740871 0.0205465 0
1.20772 0.139839 0
1.22113 0.163074 0
1.23497 0.131347 0
1.74998 0.139356 0
1.93059 0.00800779 0
0.828231 0.0942152 0
0.850103 0.0933703 0
0.939717 0.0517525 0
0.950152 0.0498928 0
1.02548 0.140694 0
0.819084 0.169889 0
0.837074 0.16101 0
1.15039 0.267064 0
0.593258 0.197198 0
0.581364 0.130787 0
0.938333 0.0297687 0
0.930964 0.0366851 0
0.797712 0.0787458 0
0.810136 0.0613312 0
0.787386 0.0577615 0
0.996965 0.41867 0
0.958419 0.418333 0
1.1097 0.516525 0
1.07586 0.514497 0
1.08218 0.560097 0
0.763472 0.0582456 0
1.05103 0.199102 0
1.03468 0.20766 0
1.05013 0.231182 0
1.1092 0.0309884 0
1.10029 0.0318213 0
0.707753 0.271209 0
1.35779 0.614271 0
1.25878 0.630344 0
0.66528 0.324455 0
0.720998 0.73041 0
0.699741 0.638299 0
0.650358 0.634988 0
0.958752 0.112997 0
0.960663 0.130824 0
0.925161 0.0244207 0
0.929098 0.0197692 0
0.923369 0.0159627 0
0.0416284 0.10547 0
0.0344801 0.0885099 0
1.57992 0.567502 0
1.55656 0.422191 0
1.46195 0.425836 0
1.04782 0.0840405 0
1.03569 0.0875947 0
1.04672 0.0951994 0
1.01872 0.389362 0
1.01646 0.358367 0
0.98093 0.362679 0
0.633395 0.752049 0
0.527127 0.705868 0
0.473022 0.669752 0
1.11921 0.126672 0
1.11656 0.147306 0
0.728693 0.784061 0
0.583253 0.712035 0
0.907191 0.0486236 0
0.915808 0.0466948 0
0.910609 0.0372853 0
0.887502 0.207294 0
0.973692 0.0787085 0
0.971349 0.0707124 0
0.965112 0.075507 0
0.785465 0.137072 0
0.760526 0.156442 0
0.795541 0.162438 0
1.03928 0.860838 0
0.776927 0.663816 0
1.07384 0.846957 0
1.16995 0.20037 0
1.15226 0.212072 0
1.0204 0.193209 0
1.013 0.222085 0
1.02027 0.100107 0
1.02482 0.090343 0
1.01431 0.090659 0
1.04589 0.126367 0
1.03617 0.118619 0
1.02917 0.12738 0
0.728511 0.141166 0
0.729995 0.100328 0
1.01637 0.538835 0
1.04755 0.496842 0
0.878813 0.0802511 0
0.86655 0.0942735 0
1.46496 0.125904 0
1.40569 0.143928 0
1.45378 0.188607 0
1.19296 0.0379127 0
1.19682 0.0225557 0
1.17967 0.0309644 0
1.20899 0.746106 0
1.51018 0.853922 0
1.24995 0.044474 0
1.22749 0.0442657 0
1.7608 0.403452 0
1.14631 0.222716 0
0.879694 0.00716035 0
0.884895 0.0166665 0
1.04135 0.106761 0
0.814019 0.472813 0
0.870538 0.468984 0
1.08747 0.0851065 0
1.07358 0.0842438 0
1.07928 0.202887 0
0.772386 0.470835 0
0.732587 0.412144 0
1.13037 0.0157985 0
1.13434 0.00458622 0
0.687481 0.231709 0
1.1208 0.0862493 0
0.857602 0.154024 0
0.837271 0.139278 0
1.05905 0.130818 0
0.582669 0.514684 0
0.940475 0.0990513 0
0.936589 0.0890347 0
0.927299 0.0935734 0
0.824518 0.0527258 0
1.2062 0.0501289 0
1.16734 0.178631 0
1.19882 0.188172 0
1.06356 0.313913 0
1.08657 0.292635 0
1.1672 0.381228 0
1.20889 0.347049 0