<?xml version="1.0"?>
<VTKFile type="UnstructuredGrid">
  <UnstructuredGrid>
  <Piece NumberOfPoints="3321"  NumberOfCells="1600">
    <Points>
      <DataArray type="Float64" NumberOfComponents="3" format="ascii">
0 0 0.1
1 0 0.1
1 0.5 0.1
0 0.5 0.1
0.025 0 0.1
0.05 0 0.1
0.075 0 0.1
0.1 0 0.1
0.125 0 0.1
0.15 0 0.1
0.175 0 0.1
0.2 0 0.1
0.225 0 0.1
0.25 0 0.1
0.275 0 0.1
0.3 0 0.1
0.325 0 0.1
0.35 0 0.1
0.375 0 0.1
0.4 0 0.1
0.425 0 0.1
0.45 0 0.1
0.475 0 0.1
0.5 0 0.1
0.525 0 0.1
0.55 0 0.1
0.575 0 0.1
0.6 0 0.1
0.625 0 0.1
0.65 0 0.1
0.675 0 0.1
0.7 0 0.1
0.725 0 0.1
0.75 0 0.1
0.775 0 0.1
0.8 0 0.1
0.825 0 0.1
0.85 0 0.1
0.875 0 0.1
0.9 0 0.1
0.925 0 0.1
0.95 0 0.1
0.975 0 0.1
0.0125 0 0.1
0.0375 0 0.1
0.0625 0 0.1
0.0875 0 0.1
0.1125 0 0.1
0.1375 0 0.1
0.1625 0 0.1
0.1875 0 0.1
0.2125 0 0.1
0.2375 0 0.1
0.2625 0 0.1
0.2875 0 0.1
0.3125 0 0.1
0.3375 0 0.1
0.3625 0 0.1
0.3875 0 0.1
0.4125 0 0.1
0.4375 0 0.1
0.4625 0 0.1
0.4875 0 0.1
0.5125 0 0.1
0.5375 0 0.1
0.5625 0 0.1
0.5875 0 0.1
0.6125 0 0.1
0.6375 0 0.1
0.6625 0 0.1
0.6875 0 0.1
0.7125 0 0.1
0.7375 0 0.1
0.7625 0 0.1
0.7875 0 0.1
0.8125 0 0.1
0.8375 0 0.1
0.8625 0 0.1
0.8875 0 0.1
0.9125 0 0.1
0.9375 0 0.1
0.9625 0 0.1
0.9875 0 0.1
1 0.025 0.1
1 0.05 0.1
1 0.075 0.1
1 0.1 0.1
1 0.125 0.1
1 0.15 0.1
1 0.175 0.1
1 0.2 0.1
1 0.225 0.1
1 0.25 0.1
1 0.275 0.1
1 0.3 0.1
1 0.325 0.1
1 0.35 0.1
1 0.375 0.1
1 0.4 0.1
1 0.425 0.1
1 0.45 0.1
1 0.475 0.1
1 0.0125 0.1
1 0.0375 0.1
1 0.0625 0.1
1 0.0875 0.1
1 0.1125 0.1
1 0.1375 0.1
1 0.1625 0.1
1 0.1875 0.1
1 0.2125 0.1
1 0.2375 0.1
1 0.2625 0.1
1 0.2875 0.1
1 0.3125 0.1
1 0.3375 0.1
1 0.3625 0.1
1 0.3875 0.1
1 0.4125 0.1
1 0.4375 0.1
1 0.4625 0.1
1 0.4875 0.1
0.975 0.5 0.1
0.95 0.5 0.1
0.925 0.5 0.1
0.9 0.5 0.1
0.875 0.5 0.1
0.85 0.5 0.1
0.825 0.5 0.1
0.8 0.5 0.1
0.775 0.5 0.1
0.75 0.5 0.1
0.725 0.5 0.1
0.7 0.5 0.1
0.675 0.5 0.1
0.65 0.5 0.1
0.625 0.5 0.1
0.6 0.5 0.1
0.575 0.5 0.1
0.55 0.5 0.1
0.525 0.5 0.1
0.5 0.5 0.1
0.475 0.5 0.1
0.45 0.5 0.1
0.425 0.5 0.1
0.4 0.5 0.1
0.375 0.5 0.1
0.35 0.5 0.1
0.325 0.5 0.1
0.3 0.5 0.1
0.275 0.5 0.1
0.25 0.5 0.1
0.225 0.5 0.1
0.2 0.5 0.1
0.175 0.5 0.1
0.15 0.5 0.1
0.125 0.5 0.1
0.1 0.5 0.1
0.075 0.5 0.1
0.05 0.5 0.1
0.025 0.5 0.1
0.9875 0.5 0.1
0.9625 0.5 0.1
0.9375 0.5 0.1
0.9125 0.5 0.1
0.8875 0.5 0.1
0.8625 0.5 0.1
0.8375 0.5 0.1
0.8125 0.5 0.1
0.7875 0.5 0.1
0.7625 0.5 0.1
0.7375 0.5 0.1
0.7125 0.5 0.1
0.6875 0.5 0.1
0.6625 0.5 0.1
0.6375 0.5 0.1
0.6125 0.5 0.1
0.5875 0.5 0.1
0.5625 0.5 0.1
0.5375 0.5 0.1
0.5125 0.5 0.1
0.4875 0.5 0.1
0.4625 0.5 0.1
0.4375 0.5 0.1
0.4125 0.5 0.1
0.3875 0.5 0.1
0.3625 0.5 0.1
0.3375 0.5 0.1
0.3125 0.5 0.1
0.2875 0.5 0.1
0.2625 0.5 0.1
0.2375 0.5 0.1
0.2125 0.5 0.1
0.1875 0.5 0.1
0.1625 0.5 0.1
0.1375 0.5 0.1
0.1125 0.5 0.1
0.0875 0.5 0.1
0.0625 0.5 0.1
0.0375 0.5 0.1
0.0125 0.5 0.1
0 0.475 0.1
0 0.45 0.1
0 0.425 0.1
0 0.4 0.1
0 0.375 0.1
0 0.35 0.1
0 0.325 0.1
0 0.3 0.1
0 0.275 0.1
0 0.25 0.1
0 0.225 0.1
0 0.2 0.1
0 0.175 0.1
0 0.15 0.1
0 0.125 0.1
0 0.1 0.1
0 0.075 0.1
0 0.05 0.1
0 0.025 0.1
0 0.4875 0.1
0 0.4625 0.1
0 0.4375 0.1
0 0.4125 0.1
0 0.3875 0.1
0 0.3625 0.1
0 0.3375 0.1
0 0.3125 0.1
0 0.2875 0.1
0 0.2625 0.1
0 0.2375 0.1
0 0.2125 0.1
0 0.1875 0.1
0 0.1625 0.1
0 0.1375 0.1
0 0.1125 0.1
0 0.0875 0.1
0 0.0625 0.1
0 0.0375 0.1
0 0.0125 0.1
0.975 0.475 0.1
0.975 0.45 0.1
0.975 0.425 0.1
0.975 0.4 0.1
0.975 0.375 0.1
0.975 0.35 0.1
0.975 0.325 0.1
0.975 0.3 0.1
0.975 0.275 0.1
0.975 0.25 0.1
0.975 0.225 0.1
0.975 0.2 0.1
0.975 0.175 0.1
0.975 0.15 0.1
0.975 0.125 0.1
0.975 0.1 0.1
0.975 0.075 0.1
0.975 0.05 0.1
0.975 0.025 0.1
0.95 0.475 0.1
0.95 0.45 0.1
0.95 0.425 0.1
0.95 0.4 0.1
0.95 0.375 0.1
0.95 0.35 0.1
0.95 0.325 0.1
0.95 0.3 0.1
0.95 0.275 0.1
0.95 0.25 0.1
0.95 0.225 0.1
0.95 0.2 0.1
0.95 0.175 0.1
0.95 0.15 0.1
0.95 0.125 0.1
0.95 0.1 0.1
0.95 0.075 0.1
0.95 0.05 0.1
0.95 0.025 0.1
0.925 0.475 0.1
0.925 0.45 0.1
0.925 0.425 0.1
0.925 0.4 0.1
0.925 0.375 0.1
0.925 0.35 0.1
0.925 0.325 0.1
0.925 0.3 0.1
0.925 0.275 0.1
0.925 0.25 0.1
0.925 0.225 0.1
0.925 0.2 0.1
0.925 0.175 0.1
0.925 0.15 0.1
0.925 0.125 0.1
0.925 0.1 0.1
0.925 0.075 0.1
0.925 0.05 0.1
0.925 0.025 0.1
0.9 0.475 0.1
0.9 0.45 0.1
0.9 0.425 0.1
0.9 0.4 0.1
0.9 0.375 0.1
0.9 0.35 0.1
0.9 0.325 0.1
0.9 0.3 0.1
0.9 0.275 0.1
0.9 0.25 0.1
0.9 0.225 0.1
0.9 0.2 0.1
0.9 0.175 0.1
0.9 0.15 0.1
0.9 0.125 0.1
0.9 0.1 0.1
0.9 0.075 0.1
0.9 0.05 0.1
0.9 0.025 0.1
0.875 0.475 0.1
0.875 0.45 0.1
0.875 0.425 0.1
0.875 0.4 0.1
0.875 0.375 0.1
0.875 0.35 0.1
0.875 0.325 0.1
0.875 0.3 0.1
0.875 0.275 0.1
0.875 0.25 0.1
0.875 0.225 0.1
0.875 0.2 0.1
0.875 0.175 0.1
0.875 0.15 0.1
0.875 0.125 0.1
0.875 0.1 0.1
0.875 0.075 0.1
0.875 0.05 0.1
0.875 0.025 0.1
0.85 0.475 0.1
0.85 0.45 0.1
0.85 0.425 0.1
0.85 0.4 0.1
0.85 0.375 0.1
0.85 0.35 0.1
0.85 0.325 0.1
0.85 0.3 0.1
0.85 0.275 0.1
0.85 0.25 0.1
0.85 0.225 0.1
0.85 0.2 0.1
0.85 0.175 0.1
0.85 0.15 0.1
0.85 0.125 0.1
0.85 0.1 0.1
0.85 0.075 0.1
0.85 0.05 0.1
0.85 0.025 0.1
0.825 0.475 0.1
0.825 0.45 0.1
0.825 0.425 0.1
0.825 0.4 0.1
0.825 0.375 0.1
0.825 0.35 0.1
0.825 0.325 0.1
0.825 0.3 0.1
0.825 0.275 0.1
0.825 0.25 0.1
0.825 0.225 0.1
0.825 0.2 0.1
0.825 0.175 0.1
0.825 0.15 0.1
0.825 0.125 0.1
0.825 0.1 0.1
0.825 0.075 0.1
0.825 0.05 0.1
0.825 0.025 0.1
0.8 0.475 0.1
0.8 0.45 0.1
0.8 0.425 0.1
0.8 0.4 0.1
0.8 0.375 0.1
0.8 0.35 0.1
0.8 0.325 0.1
0.8 0.3 0.1
0.8 0.275 0.1
0.8 0.25 0.1
0.8 0.225 0.1
0.8 0.2 0.1
0.8 0.175 0.1
0.8 0.15 0.1
0.8 0.125 0.1
0.8 0.1 0.1
0.8 0.075 0.1
0.8 0.05 0.1
0.8 0.025 0.1
0.775 0.475 0.1
0.775 0.45 0.1
0.775 0.425 0.1
0.775 0.4 0.1
0.775 0.375 0.1
0.775 0.35 0.1
0.775 0.325 0.1
0.775 0.3 0.1
0.775 0.275 0.1
0.775 0.25 0.1
0.775 0.225 0.1
0.775 0.2 0.1
0.775 0.175 0.1
0.775 0.15 0.1
0.775 0.125 0.1
0.775 0.1 0.1
0.775 0.075 0.1
0.775 0.05 0.1
0.775 0.025 0.1
0.75 0.475 0.1
0.75 0.45 0.1
0.75 0.425 0.1
0.75 0.4 0.1
0.75 0.375 0.1
0.75 0.35 0.1
0.75 0.325 0.1
0.75 0.3 0.1
0.75 0.275 0.1
0.75 0.25 0.1
0.75 0.225 0.1
0.75 0.2 0.1
0.75 0.175 0.1
0.75 0.15 0.1
0.75 0.125 0.1
0.75 0.1 0.1
0.75 0.075 0.1
0.75 0.05 0.1
0.75 0.025 0.1
0.725 0.475 0.1
0.725 0.45 0.1
0.725 0.425 0.1
0.725 0.4 0.1
0.725 0.375 0.1
0.725 0.35 0.1
0.725 0.325 0.1
0.725 0.3 0.1
0.725 0.275 0.1
0.725 0.25 0.1
0.725 0.225 0.1
0.725 0.2 0.1
0.725 0.175 0.1
0.725 0.15 0.1
0.725 0.125 0.1
0.725 0.1 0.1
0.725 0.075 0.1
0.725 0.05 0.1
0.725 0.025 0.1
0.7 0.475 0.1
0.7 0.45 0.1
0.7 0.425 0.1
0.7 0.4 0.1
0.7 0.375 0.1
0.7 0.35 0.1
0.7 0.325 0.1
0.7 0.3 0.1
0.7 0.275 0.1
0.7 0.25 0.1
0.7 0.225 0.1
0.7 0.2 0.1
0.7 0.175 0.1
0.7 0.15 0.1
0.7 0.125 0.1
0.7 0.1 0.1
0.7 0.075 0.1
0.7 0.05 0.1
0.7 0.025 0.1
0.675 0.475 0.1
0.675 0.45 0.1
0.675 0.425 0.1
0.675 0.4 0.1
0.675 0.375 0.1
0.675 0.35 0.1
0.675 0.325 0.1
0.675 0.3 0.1
0.675 0.275 0.1
0.675 0.25 0.1
0.675 0.225 0.1
0.675 0.2 0.1
0.675 0.175 0.1
0.675 0.15 0.1
0.675 0.125 0.1
0.675 0.1 0.1
0.675 0.075 0.1
0.675 0.05 0.1
0.675 0.025 0.1
0.65 0.475 0.1
0.65 0.45 0.1
0.65 0.425 0.1
0.65 0.4 0.1
0.65 0.375 0.1
0.65 0.35 0.1
0.65 0.325 0.1
0.65 0.3 0.1
0.65 0.275 0.1
0.65 0.25 0.1
0.65 0.225 0.1
0.65 0.2 0.1
0.65 0.175 0.1
0.65 0.15 0.1
0.65 0.125 0.1
0.65 0.1 0.1
0.65 0.075 0.1
0.65 0.05 0.1
0.65 0.025 0.1
0.625 0.475 0.1
0.625 0.45 0.1
0.625 0.425 0.1
0.625 0.4 0.1
0.625 0.375 0.1
0.625 0.35 0.1
0.625 0.325 0.1
0.625 0.3 0.1
0.625 0.275 0.1
0.625 0.25 0.1
0.625 0.225 0.1
0.625 0.2 0.1
0.625 0.175 0.1
0.625 0.15 0.1
0.625 0.125 0.1
0.625 0.1 0.1
0.625 0.075 0.1
0.625 0.05 0.1
0.625 0.025 0.1
0.6 0.475 0.1
0.6 0.45 0.1
0.6 0.425 0.1
0.6 0.4 0.1
0.6 0.375 0.1
0.6 0.35 0.1
0.6 0.325 0.1
0.6 0.3 0.1
0.6 0.275 0.1
0.6 0.25 0.1
0.6 0.225 0.1
0.6 0.2 0.1
0.6 0.175 0.1
0.6 0.15 0.1
0.6 0.125 0.1
0.6 0.1 0.1
0.6 0.075 0.1
0.6 0.05 0.1
0.6 0.025 0.1
0.575 0.475 0.1
0.575 0.45 0.1
0.575 0.425 0.1
0.575 0.4 0.1
0.575 0.375 0.1
0.575 0.35 0.1
0.575 0.325 0.1
0.575 0.3 0.1
0.575 0.275 0.1
0.575 0.25 0.1
0.575 0.225 0.1
0.575 0.2 0.1
0.575 0.175 0.1
0.575 0.15 0.1
0.575 0.125 0.1
0.575 0.1 0.1
0.575 0.075 0.1
0.575 0.05 0.1
0.575 0.025 0.1
0.55 0.475 0.1
0.55 0.45 0.1
0.55 0.425 0.1
0.55 0.4 0.1
0.55 0.375 0.1
0.55 0.35 0.1
0.55 0.325 0.1
0.55 0.3 0.1
0.55 0.275 0.1
0.55 0.25 0.1
0.55 0.225 0.1
0.55 0.2 0.1
0.55 0.175 0.1
0.55 0.15 0.1
0.55 0.125 0.1
0.55 0.1 0.1
0.55 0.075 0.1
0.55 0.05 0.1
0.55 0.025 0.1
0.525 0.475 0.1
0.525 0.45 0.1
0.525 0.425 0.1
0.525 0.4 0.1
0.525 0.375 0.1
0.525 0.35 0.1
0.525 0.325 0.1
0.525 0.3 0.1
0.525 0.275 0.1
0.525 0.25 0.1
0.525 0.225 0.1
0.525 0.2 0.1
0.525 0.175 0.1
0.525 0.15 0.1
0.525 0.125 0.1
0.525 0.1 0.1
0.525 0.075 0.1
0.525 0.05 0.1
0.525 0.025 0.1
0.5 0.475 0.1
0.5 0.45 0.1
0.5 0.425 0.1
0.5 0.4 0.1
0.5 0.375 0.1
0.5 0.35 0.1
0.5 0.325 0.1
0.5 0.3 0.1
0.5 0.275 0.1
0.5 0.25 0.1
0.5 0.225 0.1
0.5 0.2 0.1
0.5 0.175 0.1
0.5 0.15 0.1
0.5 0.125 0.1
0.5 0.1 0.1
0.5 0.075 0.1
0.5 0.05 0.1
0.5 0.025 0.1
0.475 0.475 0.1
0.475 0.45 0.1
0.475 0.425 0.1
0.475 0.4 0.1
0.475 0.375 0.1
0.475 0.35 0.1
0.475 0.325 0.1
0.475 0.3 0.1
0.475 0.275 0.1
0.475 0.25 0.1
0.475 0.225 0.1
0.475 0.2 0.1
0.475 0.175 0.1
0.475 0.15 0.1
0.475 0.125 0.1
0.475 0.1 0.1
0.475 0.075 0.1
0.475 0.05 0.1
0.475 0.025 0.1
0.45 0.475 0.1
0.45 0.45 0.1
0.45 0.425 0.1
0.45 0.4 0.1
0.45 0.375 0.1
0.45 0.35 0.1
0.45 0.325 0.1
0.45 0.3 0.1
0.45 0.275 0.1
0.45 0.25 0.1
0.45 0.225 0.1
0.45 0.2 0.1
0.45 0.175 0.1
0.45 0.15 0.1
0.45 0.125 0.1
0.45 0.1 0.1
0.45 0.075 0.1
0.45 0.05 0.1
0.45 0.025 0.1
0.425 0.475 0.1
0.425 0.45 0.1
0.425 0.425 0.1
0.425 0.4 0.1
0.425 0.375 0.1
0.425 0.35 0.1
0.425 0.325 0.1
0.425 0.3 0.1
0.425 0.275 0.1
0.425 0.25 0.1
0.425 0.225 0.1
0.425 0.2 0.1
0.425 0.175 0.1
0.425 0.15 0.1
0.425 0.125 0.1
0.425 0.1 0.1
0.425 0.075 0.1
0.425 0.05 0.1
0.425 0.025 0.1
0.4 0.475 0.1
0.4 0.45 0.1
0.4 0.425 0.1
0.4 0.4 0.1
0.4 0.375 0.1
0.4 0.35 0.1
0.4 0.325 0.1
0.4 0.3 0.1
0.4 0.275 0.1
0.4 0.25 0.1
0.4 0.225 0.1
0.4 0.2 0.1
0.4 0.175 0.1
0.4 0.15 0.1
0.4 0.125 0.1
0.4 0.1 0.1
0.4 0.075 0.1
0.4 0.05 0.1
0.4 0.025 0.1
0.375 0.475 0.1
0.375 0.45 0.1
0.375 0.425 0.1
0.375 0.4 0.1
0.375 0.375 0.1
[...]
    <PointData>
      <DataArray type="Float64" NumberOfComponents="3" Name="Velocity" format="ascii">
0 0 0
0 0 0
0 0 0
0 0 0
0 0 0
0 0 0
0 0 0
0 0 0
0 0 0
0 0 0
0 0 0
0 0 0
0 0 0
0 0 0
0 0 0
0 0 0
0 0 0
0 0 0
0 0 0
0 0 0
0 0 0
0 0 0
0 0 0
0 0 0
0 0 0
0 0 0
0 0 0
0 0 0
0 0 0
0 0 0
0 0 0
0 0 0
0 0 0
0 0 0
0 0 0
0 0 0
0 0 0
0 0 0
0 0 0
0 0 0
0 0 0
0 0 0
0 0 0
0 0 0
0 0 0
0 0 0
0 0 0
0 0 0
0 0 0
0 0 0
0 0 0
0 0 0
0 0 0
0 0 0
0 0 0
0 0 0
0 0 0
0 0 0
0 0 0
0 0 0
0 0 0
0 0 0
0 0 0
0 0 0
0 0 0
0 0 0
0 0 0
0 0 0
0 0 0
0 0 0
0 0 0
0 0 0
0 0 0
0 0 0
0 0 0
0 0 0
0 0 0
0 0 0
0 0 0
0 0 0
0 0 0
0 0 0
0 0 0
0 0 0
0 0 0
0 0 0
0 0 0
0 0 0
0 0 0
0 0 0
0 0 0
0 0 0
0 0 0
0 0 0
0 0 0
0 0 0
0 0 0
0 0 0
0 0 0
0 0 0
0 0 0
0 0 0
0 0 0
0 0 0
0 0 0
0 0 0
0 0 0
0 0 0
0 0 0
0 0 0
0 0 0
0 0 0
0 0 0
0 0 0
0 0 0
0 0 0
0 0 0
0 0 0
0 0 0
0 0 0
0 0 0
0 0 0
-0.00283137 -0.0418605 0
-0.00995155 -0.0768081 0
-0.0204067 -0.105742 0
-0.0325251 -0.12925 0
-0.0463658 -0.147523 0
-0.061509 -0.160167 0
-0.0766059 -0.167802 0
-0.0914807 -0.170563 0
-0.105805 -0.168877 0
-0.118976 -0.163581 0
-0.130914 -0.154718 0
-0.141446 -0.142944 0
-0.150446 -0.128587 0
-0.158117 -0.112064 0
-0.16439 -0.0941831 0
-0.169171 -0.0750092 0
-0.172611 -0.0550358 0
-0.174627 -0.0346599 0
-0.175332 -0.0140728 0
-0.174806 0.00620875 0
-0.173064 0.026175 0
-0.170178 0.045757 0
-0.166123 0.0645621 0
-0.160844 0.0825291 0
-0.154408 0.099352 0
-0.146815 0.114755 0
-0.138125 0.128643 0
-0.128398 0.140468 0
-0.117586 0.149993 0
-0.105849 0.156917 0
-0.0933839 0.160774 0
-0.0802009 0.161476 0
-0.066718 0.158415 0
-0.0534389 0.151041 0
-0.0408047 0.138645 0
-0.0288512 0.120804 0
-0.018153 0.0977855 0
-0.00920526 0.0695626 0
-0.00312729 0.0359798 0
-0.00124407 -0.0204536 0
-0.00591725 -0.0601178 0
-0.0149663 -0.0920145 0
-0.0263203 -0.118219 0
-0.0393042 -0.139124 0
-0.0539709 -0.154641 0
-0.0691604 -0.16475 0
-0.08417 -0.169955 0
-0.0988431 -0.170406 0
-0.112611 -0.166883 0
-0.125163 -0.159735 0
-0.136413 -0.149325 0
-0.146174 -0.136242 0
-0.154486 -0.120698 0
-0.161477 -0.103436 0
-0.166991 -0.084898 0
-0.171101 -0.0652362 0
-0.173833 -0.0450598 0
-0.175175 -0.0245053 0
-0.175245 -0.00397233 0
-0.174098 0.0161671 0
-0.171772 0.0360079 0
-0.168305 0.05524 0
-0.163628 0.0736576 0
-0.157757 0.0911273 0
-0.150736 0.107259 0
-0.142573 0.121972 0
-0.13336 0.134882 0
-0.123079 0.145581 0
-0.11177 0.153881 0
-0.0996711 0.159279 0
-0.0868247 0.161578 0
-0.07343 0.160489 0
-0.0600074 0.15533 0
-0.0470308 0.145574 0
-0.0346776 0.130432 0
-0.0232864 0.109978 0
-0.0133666 0.0843853 0
-0.0056942 0.0535365 0
-0.00292439 0.016892 0
0 0 0
0 0 0
0 0 0
0 0 0
0 0 0
0 0 0
0 0 0
0 0 0
0 0 0
0 0 0
0 0 0
0 0 0
0 0 0
0 0 0
0 0 0
0 0 0
0 0 0
0 0 0
0 0 0
0 0 0
0 0 0
0 0 0
0 0 0
0 0 0
0 0 0
0 0 0
0 0 0
0 0 0
0 0 0
0 0 0
0 0 0
0 0 0
0 0 0
0 0 0
0 0 0
0 0 0
0 0 0
0 0 0
0 0 0
-0.00443867 -0.0358427 0
-0.00436255 -0.0308894 0
-0.00375961 -0.025977 0
-0.00248329 -0.0220277 0
-0.00186611 -0.0191513 0
-0.00161981 -0.016524 0
-0.00147072 -0.0140739 0
-0.00134486 -0.0118063 0
-0.00122445 -0.00972497 0
-0.0011049 -0.00783107 0
-0.000984225 -0.00612573 0
-0.000860752 -0.00461168 0
-0.000732745 -0.00329422 0
-0.000598683 -0.00218146 0
-0.000458026 -0.00128388 0
-0.000312744 -0.000613051 0
-0.000168639 -0.00017946 0
-2.90392e-05 2.2729e-05 0
5.87631e-05 5.08079e-05 0
-0.0107278 -0.0660568 0
-0.0106383 -0.0573984 0
-0.00959168 -0.0498296 0
-0.00754955 -0.0432521 0
-0.0062449 -0.0375774 0
-0.00554427 -0.0323535 0
-0.00503994 -0.027584 0
-0.00460024 -0.0232283 0
-0.00418466 -0.0192589 0
-0.00377819 -0.0156597 0
-0.00337265 -0.0124225 0
-0.00296149 -0.009546 0
-0.00253872 -0.00703454 0
-0.00209935 -0.00489715 0
-0.00164115 -0.00314594 0
-0.00116785 -0.00179283 0
-0.000694804 -0.000842823 0
-0.000262181 -0.00027796 0
3.03001e-05 -3.75028e-05 0
-0.0196909 -0.0919087 0
-0.0189318 -0.0805924 0
-0.017331 -0.0707776 0
-0.0149002 -0.0621202 0
-0.0130165 -0.0542471 0
-0.0116795 -0.0468413 0
-0.0106084 -0.0400568 0
-0.00966339 -0.0338721 0
-0.00878076 -0.0282464 0
-0.0079284 -0.0231489 0
-0.00708657 -0.0185616 0
-0.00624033 -0.0144763 0
-0.00537727 -0.010893 0
-0.00448789 -0.00781754 0
-0.00356834 -0.00525876 0
-0.00262587 -0.00322494 0
-0.00168902 -0.00171695 0
-0.000826499 -0.000718051 0
-0.000177972 -0.000182059 0
-0.0308963 -0.113154 0
-0.0292374 -0.099942 0
-0.0269496 -0.0883376 0
-0.0241107 -0.0779722 0
-0.0217161 -0.0684695 0
-0.019666 -0.0594234 0
-0.0178975 -0.0510471 0
-0.0163053 -0.0433672 0
-0.0148172 -0.0363595 0
-0.013387 -0.0299959 0
-0.0119828 -0.024255 0
-0.0105802 -0.0191248 0
-0.00915973 -0.0146009 0
-0.00770689 -0.0106849 0
-0.00621605 -0.00738218 0
-0.0046973 -0.00469834 0
-0.00318851 -0.00263511 0
-0.00177484 -0.00118477 0
-0.000618096 -0.00032327 0
-0.0437492 -0.129689 0
-0.0411199 -0.115216 0
-0.0381535 -0.102352 0
-0.0348015 -0.0906714 0
-0.0318123 -0.0800077 0
-0.0290481 -0.0697978 0
-0.0265402 -0.0602487 0
-0.0242259 -0.0514255 0
-0.0220428 -0.0433314 0
-0.0199412 -0.035951 0
-0.0178821 -0.0292677 0
-0.0158335 -0.0232693 0
-0.0137692 -0.0179497 0
-0.0116698 -0.0133079 0
-0.00952691 -0.00934759 0
-0.00735054 -0.00607483 0
-0.00518118 -0.00349709 0
-0.00310783 -0.00162191 0
-0.00129267 -0.00045601 0
-0.0576147 -0.141554 0
-0.0540153 -0.126428 0
-0.0504548 -0.112845 0
-0.0465776 -0.100345 0
-0.0428887 -0.0888739 0
-0.0394215 -0.0778563 0
-0.0361729 -0.0674931 0
-0.0331094 -0.0578579 0
-0.0301862 -0.0489705 0
-0.027359 -0.0408284 0
-0.024587 -0.0334225 0
-0.0218341 -0.0267437 0
-0.0190688 -0.0207869 0
-0.016267 -0.0155512 0
-0.0134157 -0.0110411 0
-0.0105209 -0.00726653 0
-0.00761814 -0.00424423 0
-0.00478774 -0.00200011 0
-0.00217326 -0.000571566 0
-0.0718803 -0.148916 0
-0.0674103 -0.133632 0
-0.0633302 -0.119795 0
-0.0590006 -0.106959 0
-0.0546162 -0.0950481 0
-0.0504458 -0.0835525 0
-0.0464647 -0.0726977 0
-0.0426517 -0.0625571 0
-0.0389765 -0.0531575 0
-0.0354025 -0.0445055 0
-0.031891 -0.0365991 0
-0.0284043 -0.0294345 0
-0.0249074 -0.0230092 0
-0.0213708 -0.0173251 0
-0.0177755 -0.01239 0
-0.0141194 -0.00821996 0
-0.0104262 -0.00484283 0
-0.00675711 -0.0023029 0
-0.00322385 -0.000664229 0
-0.0860456 -0.151895 0
-0.0808398 -0.136905 0
-0.076331 -0.123231 0
-0.0716288 -0.110456 0
-0.0666323 -0.0984976 0
-0.0617917 -0.0868717 0
-0.0571056 -0.0758368 0
-0.0525651 -0.0654798 0
-0.0481517 -0.055835 0
-0.0438368 -0.0469165 0
-0.0395856 -0.0387291 0
-0.0353605 -0.0312746 0
-0.0311236 -0.0245551 0
-0.0268406 -0.0185768 0
-0.0224845 -0.0133525 0
-0.0180414 -0.00890565 0
-0.0135176 -0.00527536 0
-0.0089479 -0.00252219 0
-0.00440387 -0.000731526 0
-0.0996685 -0.150963 0
-0.0938942 -0.136611 0
-0.0890847 -0.123422 0
-0.084097 -0.111012 0
-0.0785859 -0.0993113 0
-0.0731438 -0.0878641 0
-0.0678042 -0.0769405 0
-0.0625791 -0.0666377 0
-0.0574626 -0.0569986 0
-0.0524345 -0.0480449 0
-0.047465 -0.0397885 0
-0.0425175 -0.0322369 0
-0.0375521 -0.025398 0
-0.032529 -0.0192829 0
-0.0274119 -0.0139104 0
-0.0221728 -0.00931147 0
-0.0167966 -0.00553525 0
-0.011287 -0.00265541 0
-0.00567067 -0.000772843 0
-0.112458 -0.146588 0
-0.106291 -0.133083 0
-0.101315 -0.120618 0
-0.0961351 -0.108818 0
-0.0901864 -0.097641 0
-0.0842173 -0.0866451 0
-0.0782927 -0.0760942 0
-0.0724434 -0.0660919 0
-0.0666763 -0.0566894 0
-0.0609804 -0.0479162 0
-0.0553313 -0.039791 0
-0.0496943 -0.0323277 0
-0.0440279 -0.0255396 0
-0.0382866 -0.0194434 0
-0.0324241 -0.0140636 0
-0.0263964 -0.009438 0
-0.0201651 -0.00562373 0
-0.0137001 -0.00270376 0
-0.00698162 -0.000788688 0
-0.124198 -0.13901 0
-0.117799 -0.126558 0
-0.112773 -0.115036 0
-0.107477 -0.104096 0
-0.101168 -0.0936926 0
-0.09476 -0.0833833 0
-0.0883324 -0.0734306 0
-0.0819322 -0.0639453 0
-0.07558 -0.0549864 0
-0.0692746 -0.0465901 0
-0.0629978 -0.0387814 0
-0.0567175 -0.03158 0
-0.050391 -0.0250045 0
-0.0439672 -0.0190766 0
-0.0373893 -0.0138259 0
-0.0305965 -0.00929536 0
-0.0235263 -0.00554767 0
-0.0161146 -0.00267102 0
-0.00829561 -0.000780316 0
-0.134714 -0.128799 0
-0.12824 -0.117522 0
-0.123255 -0.107092 0
-0.1179 -0.0971898 0
-0.111321 -0.0877288 0
-0.104565 -0.0782858 0
-0.09772 -0.0691165 0
-0.090848 -0.0603328 0
-0.0839835 -0.0519979 0
-0.0771356 -0.0441531 0
-0.0702927 -0.0368283 0
-0.0634258 -0.030048 0
-0.056491 -0.0238349 0
-0.0494319 -0.0182149 0
-0.0421814 -0.0132215 0
-0.0346623 -0.00890077 0
-0.0267881 -0.00531808 0
-0.0184618 -0.00256292 0
-0.00957408 -0.000749507 0
-0.143844 -0.116254 0
-0.137474 -0.106343 0
-0.132616 -0.0971306 0
-0.127252 -0.0883891 0
-0.12049 -0.0800061 0
-0.113468 -0.0715741 0
-0.106287 -0.0633386 0
-0.0990223 -0.0554101 0
-0.0917213 -0.0478532 0
-0.0844027 -0.0407118 0
-0.0770615 -0.0340189 0
-0.0696718 -0.0278018 0
-0.0621891 -0.0220866 0
-0.054552 -0.0169016 0
-0.0466835 -0.0122825 0
-0.0384908 -0.00827664 0
-0.0298649 -0.00494895 0
-0.0206784 -0.0023865 0
-0.0107818 -0.000698412 0
-0.151514 -0.101668 0
-0.145344 -0.0932831 0
-0.140735 -0.0854559 0
-0.135413 -0.0779845 0
-0.128545 -0.0707827 0
-0.121335 -0.0634745 0
-0.113894 -0.056293 0
-0.106314 -0.0493456 0
-0.0986517 -0.0426955 0
-0.0909361 -0.0363866 0
-0.0831682 -0.0304529 0
-0.0753249 -0.0249232 0
-0.0673614 -0.0198248 0
-0.0592117 -0.0151874 0
-0.0507898 -0.0110467 0
-0.041989 -0.00744911 0
-0.0326799 -0.0044564 0
-0.0227076 -0.0021498 0
-0.0118873 -0.000629446 0
-0.157763 -0.0856401 0
-0.15181 -0.078804 0
-0.147514 -0.0724283 0
-0.142306 -0.0662839 0
-0.135397 -0.0603181 0
-0.128064 -0.0542131 0
-0.120432 -0.0481792 0
-0.112607 -0.0423139 0
-0.104657 -0.0366757 0
-0.0966177 -0.0313064 0
-0.0884963 -0.0262388 0
-0.0802721 -0.0215015 0
-0.0718997 -0.0171216 0
-0.0633095 -0.0131283 0
-0.0544078 -0.00955563 0
-0.0450755 -0.00644681 0
-0.0351657 -0.00385797 0
-0.0244999 -0.00186146 0
-0.0128634 -0.000545191 0
-0.162638 -0.0684256 0
-0.156906 -0.0631912 0
-0.152918 -0.0582871 0
-0.147893 -0.0535179 0
-0.140983 -0.0488454 0
-0.133575 -0.0440091 0
-0.125812 -0.039196 0
-0.117808 -0.0344919 0
-0.10964 -0.029949 0
-0.10135 -0.0256049 0
-0.0929491 -0.0214898 0
-0.0844185 -0.0176307 0
-0.0757129 -0.0140529 0
-0.0667597 -0.0107834 0
-0.0574589 -0.00785308 0
-0.0476812 -0.00529986 0
-0.0372653 -0.00317201 0
-0.0260139 -0.0015305 0
-0.0136874 -0.00044832 0
-0.166194 -0.0503891 0
-0.160688 -0.0467685 0
-0.156966 -0.0433186 0
-0.152121 -0.039937 0
-0.145243 -0.0365981 0
-0.137807 -0.0330794 0
-0.129967 -0.0295412 0
-0.121847 -0.0260572 0
-0.113528 -0.0226719 0
-0.105058 -0.019418 0
-0.0964497 -0.0163219 0
-0.0876884 -0.0134073 0
-0.0787277 -0.0106968 0
-0.069493 -0.00821375 0
-0.0598794 -0.00598415 0
-0.0497501 -0.00403917 0
-0.0389329 -0.00241729 0
-0.0272158 -0.00116607 0
-0.014341 -0.000341542 0
-0.168479 -0.0318914 0
-0.163199 -0.0298342 0
-0.159684 -0.0278164 0
-0.154977 -0.0258152 0
-0.148145 -0.0238176 0
-0.140718 -0.0216411 0
-0.132851 -0.0194112 0
-0.124671 -0.0171857 0
-0.116265 -0.0150004 0
-0.107683 -0.0128816 0
-0.0989407 -0.0108512 0
-0.0900245 -0.00892852 0
-0.0808885 -0.00713216 0
-0.0714565 -0.00548072 0
-0.0616209 -0.00399428 0
-0.0512397 -0.00269582 0
-0.0401335 -0.00161261 0
-0.0280805 -0.00077735 0
-0.0148106 -0.00022755 0
-0.169521 -0.0131091 0
-0.164435 -0.0125674 0
-0.161049 -0.0119836 0
-0.156445 -0.0113765 0
-0.149672 -0.0107304 0
-0.142285 -0.00990558 0
-0.134435 -0.00899821 0
-0.12625 -0.00805056 0
-0.117817 -0.00708825 0
-0.109189 -0.00613036 0
-0.100384 -0.00519304 0
-0.0913885 -0.00429082 0
-0.0821574 -0.00343727 0
-0.0726143 -0.00264549 0
-0.0626502 -0.00192866 0
-0.0521209 -0.00130065 0
-0.0408433 -0.000776614 0
-0.0285909 -0.000373367 0
-0.0150869 -0.000108994 0
-0.169295 0.00560975 0
-0.164346 0.00471537 0
-0.161038 0.00389107 0
-0.156518 0.00312907 0
-0.149823 0.00244297 0
-0.142505 0.00192478 0
-0.134712 0.00151188 0
-0.12657 0.00117984 0
-0.118168 0.000914215 0
-0.109559 0.000703913 0
-0.10076 0.000539078 0
-0.0917604 0.000410675 0
-0.0825146 0.00031056 0
-0.0729471 0.000231668 0
-0.0629495 0.000168229 0
-0.052378 0.000115984 0
-0.0410497 7.2419e-05 0
-0.0287377 3.70275e-05 0
-0.0151652 1.15406e-05 0
-0.167772 0.0240749 0
-0.162903 0.0217907 0
-0.159662 0.019596 0
-0.155221 0.0174979 0
-0.148615 0.0155018 0
-0.141389 0.0136583 0
-0.133688 0.0119404 0
-0.125637 0.0103422 0
-0.117321 0.00886047 0
-0.108793 0.00749231 0
-0.100069 0.00623423 0
-0.0911385 0.00508286 0
-0.0819575 0.00403564 0
-0.0724521 0.00309171 0
-0.0625161 0.00225283 0
-0.0520086 0.00152443 0
-0.0407507 0.000916646 0
-0.0285199 0.000445219 0
-0.0150449 0.000131546 0
-0.164936 0.0421557 0
-0.160107 0.0385126 0
-0.156937 0.0349684 0
-0.152567 0.0315468 0
-0.146065 0.0282542 0
-0.138957 0.0251085 0
-0.131386 0.022113 0
-0.123472 0.0192771 0
-0.115297 0.0166076 0
-0.10691 0.0141091 0
-0.0983278 0.0117841 0
-0.0895389 0.00963486 0
-0.080501 0.00766412 0
-0.0711427 0.00587704 0
-0.0613619 0.00428267 0
-0.0510233 0.00289579 0
-0.039955 0.00173871 0
-0.0279439 0.000842842 0
-0.0147298 0.000248591 0
-0.160847 0.0595132 0
-0.156037 0.0545819 0
-0.152893 0.0497484 0
-0.148582 0.0450414 0
-0.142203 0.0404928 0
-0.135244 0.0360864 0
-0.127843 0.0318569 0
-0.120112 0.0278281 0
-0.112132 0.0240158 0
-0.103946 0.0204315 0
-0.0955714 0.0170833 0
-0.086995 0.0139782 0
-0.0781765 0.0111241 0
-0.0690482 0.00853164 0
-0.0595135 0.00621647 0
-0.0494451 0.00420198 0
-0.0386818 0.00252175 0
-0.0270238 0.00122178 0
-0.0142275 0.000360318 0
-0.155548 0.0760134 0
-0.150753 0.0698018 0
-0.147581 0.0637064 0
-0.14332 0.0577582 0
-0.137081 0.0520088 0
-0.130303 0.0464025 0
-0.123111 0.0410008 0
-0.115613 0.0358412 0
-0.107881 0.0309484 0
-0.0999561 0.0263399 0
-0.0918526 0.0220289 0
-0.0835573 0.0180269 0
-0.0750321 0.0143459 0
-0.0662133 0.0110011 0
-0.0570115 0.00801416 0
-0.0473096 0.00541574 0
-0.0369601 0.0032494 0
-0.0257807 0.00157414 0
-0.0135497 0.000464437 0
-0.149058 0.0913963 0
-0.144279 0.0839202 0
-0.141051 0.076592 0
-0.136845 0.0694708 0
-0.13077 0.0625984 0
-0.124205 0.0558713 0
-0.117264 0.0493766 0
-0.110046 0.0431657 0
-0.102616 0.0372717 0
-0.0950104 0.0317178 0
-0.0872406 0.0265214 0
-0.079293 0.0216976 0
-0.0711314 0.0172618 0
-0.0626975 0.0132329 0
-0.05391 0.0096369 0
-0.0446641 0.00651064 0
-0.0348287 0.00390575 0
-0.024243 0.00189226 0
-0.0127118 0.000558716 0
-0.14143 0.105395 0
-0.136657 0.0966913 0
-0.133381 0.0881867 0
-0.129253 0.0799761 0
-0.123359 0.0720697 0
-0.117038 0.0643137 0
-0.110389 0.0568208 0
-0.103499 0.0496548 0
-0.096425 0.042856 0
-0.0891966 0.0364523 0
-0.0818212 0.0304644 0
-0.0742848 0.0249099 0
-0.0665535 0.0198067 0
-0.0585744 0.0151761 0
-0.0502761 0.0110472 0
-0.0415673 0.00746109 0
-0.0323359 0.00447536 0
-0.0224459 0.00216867 0
-0.011733 0.000640968 0
-0.132691 0.117862 0
-0.127936 0.107949 0
-0.124648 0.0983301 0
-0.120623 0.089097 0
-0.114941 0.0802367 0
-0.108902 0.0715543 0
-0.102591 0.0631737 0
-0.0960793 0.0551657 0
-0.0894141 0.0475757 0
-0.0826187 0.0404347 0
-0.0756959 0.0337655 0
-0.0686307 0.0275871 0
-0.0613915 0.0219185 0
-0.0539314 0.0167824 0
-0.0461891 0.0122093 0
-0.0380886 0.00824249 0
-0.0295387 0.00494332 0
-0.0204309 0.00239607 0
-0.0106361 0.000709046 0
-0.122907 0.128372 0
-0.118218 0.117353 0
-0.114964 0.106737 0
-0.111055 0.0965924 0
-0.105627 0.0868989 0
-0.0999171 0.077417 0
-0.0939911 0.0682789 0
-0.0879086 0.0595608 0
-0.0817054 0.051311 0
-0.075397 0.043562 0
-0.0689817 0.0363375 0
-0.0624433 0.0296568 0
-0.0557523 0.0235389 0
-0.0488681 0.0180061 0
-0.0417399 0.0130892 0
-0.0343077 0.00883143 0
-0.0265026 0.00529527 0
-0.0182459 0.00256741 0
-0.00944721 0.000760841 0
-0.112187 0.136704 0
-0.107645 0.124675 0
-0.104465 0.113177 0
-0.100695 0.102248 0
-0.0955629 0.0918646 0
-0.0902252 0.0817315 0
-0.0847324 0.0719866 0
-0.079129 0.0627094 0
-0.0734384 0.0539494 0
-0.0676677 0.0457387 0
-0.0618104 0.0381004 0
-0.0558487 0.031053 0
-0.0497553 0.0246143 0
-0.0434956 0.0188055 0
-0.0370295 0.0136555 0
-0.0303132 0.00920608 0
-0.0233007 0.00551766 0
-0.0159448 0.00267589 0
-0.00819601 0.000794281 0
-0.100658 0.142601 0
-0.096371 0.129677 0
-0.0933144 0.11744 0
-0.0897024 0.105882 0
-0.0849095 0.094956 0
-0.0799895 0.0843357 0
-0.0749783 0.0741556 0
-0.0699019 0.0644913 0
-0.0647706 0.0553894 0
-0.0595831 0.0468799 0
-0.0543278 0.0389839 0
-0.0489856 0.0317182 0
-0.0435309 0.0250986 0
-0.037935 0.0191442 0
-0.032168 0.013881 0
-0.0262017 0.00934692 0
-0.0200131 0.00559809 0
-0.0135865 0.00271512 0
-0.00691515 0.000807354 0
-0.0885389 0.14564 0
-0.0846269 0.132029 0
-0.0817304 0.119263 0
-0.0782765 0.107266 0
-0.0738544 0.0959851 0
-0.0693998 0.0850746 0
-0.0649162 0.0746581 0
-0.0604093 0.0648014 0
-0.055877 0.0555448 0
-0.0513102 0.0469151 0
-0.0466926 0.0389308 0
-0.0420035 0.0316062 0
-0.0372191 0.024955 0
-0.0323157 0.0189933 0
-0.0272726 0.0137433 0
-0.0220764 0.00923781 0
-0.0167254 0.00552584 0
-0.0112346 0.00267932 0
-0.00564011 0.000798145 0
-0.0760917 0.145634 0
-0.072684 0.131537 0
-0.0699485 0.118442 0
-0.0666405 0.106194 0
-0.0626276 0.0947781 0
-0.0586799 0.083814 0
-0.0547594 0.0733898 0
-0.0508533 0.0635572 0
-0.0469489 0.0543508 0
-0.0430294 0.0457937 0
-0.0390742 0.0379016 0
-0.0350608 0.0306865 0
-0.0309667 0.0241597 0
-0.0267724 0.0183342 0
-0.0224652 0.0132279 0
-0.0180443 0.00886752 0
-0.0135269 0.0052929 0
-0.00895613 0.00256371 0
-0.0044087 0.00076491 0
-0.0636546 0.142205 0
-0.0608029 0.127911 0
-0.0581867 0.114719 0
-0.0550449 0.102477 0
-0.0514977 0.0912104 0
-0.0480817 0.0804634 0
-0.0447413 0.0702817 0
-0.041452 0.060707 0
-0.0381903 0.0517698 0
-0.0349314 0.0434896 0
-0.0316498 0.0358794 0
-0.0283213 0.0289487 0
-0.0249243 0.0227062 0
-0.0214425 0.0171624 0
-0.0178694 0.012331 0
-0.0142139 0.00823208 0
-0.0105084 0.00489535 0
-0.00681966 0.00236519 0
-0.00326027 0.000706223 0
-0.0515894 0.134893 0
-0.0492382 0.120819 0
-0.0467052 0.107915 0
-0.0438113 0.0960438 0
-0.0407561 0.0852431 0
-0.0378653 0.0749882 0
-0.0351032 0.0653061 0
-0.0324321 0.0562339 0
-0.0298138 0.0477963 0
-0.0272136 0.0400074 0
-0.0246011 0.0328757 0
-0.0219509 0.0264077 0
-0.0192422 0.0206104 0
-0.0164615 0.0154921 0
-0.013606 0.0110633 0
-0.0106909 0.00733808 0
-0.00775883 0.00433563 0
-0.00489311 0.00208347 0
-0.00223456 0.000621246 0
-0.0401152 0.123326 0
-0.0382923 0.110112 0
-0.0358551 0.098057 0
-0.0332234 0.0869649 0
-0.0306458 0.0768932 0
-0.0282711 0.0673869 0
-0.0260847 0.0584679 0
-0.0240253 0.0501563 0
-0.0220369 0.0424616 0
-0.020076 0.0353872 0
-0.0181098 0.0289355 0
-0.0161127 0.02311 0
-0.014066 0.0179163 0
-0.0119578 0.013362 0
-0.00978765 0.00945584 0
-0.0075729 0.00620725 0
-0.00535998 0.00362609 0
-0.00323992 0.00172305 0
-0.00136976 0.000510272 0
-0.0294481 0.107401 0
-0.028273 0.0957033 0
-0.0259743 0.0850232 0
-0.0235004 0.0751421 0
-0.0213791 0.0661085 0
-0.0195417 0.0576546 0
-0.017936 0.0497995 0
-0.016472 0.0425324 0
-0.0150817 0.0358396 0
-0.0137192 0.0297118 0
-0.0123537 0.0241449 0
-0.0109628 0.0191404 0
-0.0095305 0.0147037 0
-0.00804718 0.010843 0
-0.00651257 0.00756716 0
-0.0049425 0.00488327 0
-0.00338017 0.00279437 0
-0.00191331 0.00129662 0
-0.000699339 0.00037593 0
-0.0197454 0.0871572 0
-0.0193011 0.077524 0
-0.0172898 0.0685973 0
-0.0149479 0.0603575 0
-0.0132612 0.0528084 0
-0.0119798 0.0458153 0
-0.0109416 0.0393836 0
-0.0100293 0.033475 0
-0.00917562 0.0280578 0
-0.00834187 0.0231144 0
-0.00750421 0.018638 0
-0.0066463 0.0146298 0
-0.00575637 0.0110963 0
-0.00482698 0.00804726 0
-0.00385734 0.00549318 0
-0.00285871 0.00344148 0
-0.00186468 0.00189215 0
-0.000947781 0.000831937 0
-0.000244901 0.000224826 0
-0.0114417 0.0627013 0
-0.01152 0.0557283 0
-0.00994886 0.0488704 0
-0.00792336 0.0426469 0
-0.00670187 0.0370778 0
-0.00595911 0.0320142 0
-0.0054222 0.027398 0
-0.00496959 0.0231737 0
-0.00455038 0.0193085 0
-0.00414043 0.0157866 0
-0.003726 0.0126038 0
-0.00329782 0.00976266 0
-0.00284885 0.00727112 0
-0.00237419 0.00514001 0
-0.00187245 0.00338116 0
-0.00134918 0.00200377 0
-0.000824368 0.00100885 0
-0.00034667 0.000381741 0
-1.08356e-05 8.02266e-05 0
-0.00523532 0.0342719 0
-0.00508463 0.0304728 0
-0.0040566 0.0260642 0
-0.0027949 0.0223218 0
-0.00215282 0.0192642 0
-0.001872 0.0165811 0
-0.00169845 0.0141416 0