<?xml version="1.0"?>
<VTKFile type="UnstructuredGrid">
  <UnstructuredGrid>
  <Piece NumberOfPoints="3321"  NumberOfCells="1600">
    <Points>
      <DataArray type="Float64" NumberOfComponents="3" format="ascii">
0 0 0.1
1 0 0.1
1 0.5 0.1
0 0.5 0.1
0.025 0 0.1
0.05 0 0.1
0.075 0 0.1
0.1 0 0.1
0.125 0 0.1
0.15 0 0.1
0.175 0 0.1
0.2 0 0.1
0.225 0 0.1
0.25 0 0.1
0.275 0 0.1
0.3 0 0.1
0.325 0 0.1
0.35 0 0.1
0.375 0 0.1
0.4 0 0.1
0.425 0 0.1
0.45 0 0.1
0.475 0 0.1
0.5 0 0.1
0.525 0 0.1
0.55 0 0.1
0.575 0 0.1
0.6 0 0.1
0.625 0 0.1
0.65 0 0.1
0.675 0 0.1
0.7 0 0.1
0.725 0 0.1
0.75 0 0.1
0.775 0 0.1
0.8 0 0.1
0.825 0 0.1
0.85 0 0.1
0.875 0 0.1
0.9 0 0.1
0.925 0 0.1
0.95 0 0.1
0.975 0 0.1
0.0125 0 0.1
0.0375 0 0.1
0.0625 0 0.1
0.0875 0 0.1
0.1125 0 0.1
0.1375 0 0.1
0.1625 0 0.1
0.1875 0 0.1
0.2125 0 0.1
0.2375 0 0.1
0.2625 0 0.1
0.2875 0 0.1
0.3125 0 0.1
0.3375 0 0.1
0.3625 0 0.1
0.3875 0 0.1
0.4125 0 0.1
0.4375 0 0.1
0.4625 0 0.1
0.4875 0 0.1
0.5125 0 0.1
0.5375 0 0.1
0.5625 0 0.1
0.5875 0 0.1
0.6125 0 0.1
0.6375 0 0.1
0.6625 0 0.1
0.6875 0 0.1
0.7125 0 0.1
0.7375 0 0.1
0.7625 0 0.1
0.7875 0 0.1
0.8125 0 0.1
0.8375 0 0.1
0.8625 0 0.1
0.8875 0 0.1
0.9125 0 0.1
0.9375 0 0.1
0.9625 0 0.1
0.9875 0 0.1
1 0.025 0.1
1 0.05 0.1
1 0.075 0.1
1 0.1 0.1
1 0.125 0.1
1 0.15 0.1
1 0.175 0.1
1 0.2 0.1
1 0.225 0.1
1 0.25 0.1
1 0.275 0.1
1 0.3 0.1
1 0.325 0.1
1 0.35 0.1
1 0.375 0.1
1 0.4 0.1
1 0.425 0.1
1 0.45 0.1
1 0.475 0.1
1 0.0125 0.1
1 0.0375 0.1
1 0.0625 0.1
1 0.0875 0.1
1 0.1125 0.1
1 0.1375 0.1
1 0.1625 0.1
1 0.1875 0.1
1 0.2125 0.1
1 0.2375 0.1
1 0.2625 0.1
1 0.2875 0.1
1 0.3125 0.1
1 0.3375 0.1
1 0.3625 0.1
1 0.3875 0.1
1 0.4125 0.1
1 0.4375 0.1
1 0.4625 0.1
1 0.4875 0.1
0.975 0.5 0.1
0.95 0.5 0.1
0.925 0.5 0.1
0.9 0.5 0.1
0.875 0.5 0.1
0.85 0.5 0.1
0.825 0.5 0.1
0.8 0.5 0.1
0.775 0.5 0.1
0.75 0.5 0.1
0.725 0.5 0.1
0.7 0.5 0.1
0.675 0.5 0.1
0.65 0.5 0.1
0.625 0.5 0.1
0.6 0.5 0.1
0.575 0.5 0.1
0.55 0.5 0.1
0.525 0.5 0.1
0.5 0.5 0.1
0.475 0.5 0.1
0.45 0.5 0.1
0.425 0.5 0.1
0.4 0.5 0.1
0.375 0.5 0.1
0.35 0.5 0.1
0.325 0.5 0.1
0.3 0.5 0.1
0.275 0.5 0.1
0.25 0.5 0.1
0.225 0.5 0.1
0.2 0.5 0.1
0.175 0.5 0.1
0.15 0.5 0.1
0.125 0.5 0.1
0.1 0.5 0.1
0.075 0.5 0.1
0.05 0.5 0.1
0.025 0.5 0.1
0.9875 0.5 0.1
0.9625 0.5 0.1
0.9375 0.5 0.1
0.9125 0.5 0.1
0.8875 0.5 0.1
0.8625 0.5 0.1
0.8375 0.5 0.1
0.8125 0.5 0.1
0.7875 0.5 0.1
0.7625 0.5 0.1
0.7375 0.5 0.1
0.7125 0.5 0.1
0.6875 0.5 0.1
0.6625 0.5 0.1
0.6375 0.5 0.1
0.6125 0.5 0.1
0.5875 0.5 0.1
0.5625 0.5 0.1
0.5375 0.5 0.1
0.5125 0.5 0.1
0.4875 0.5 0.1
0.4625 0.5 0.1
0.4375 0.5 0.1
0.4125 0.5 0.1
0.3875 0.5 0.1
0.3625 0.5 0.1
0.3375 0.5 0.1
0.3125 0.5 0.1
0.2875 0.5 0.1
0.2625 0.5 0.1
0.2375 0.5 0.1
0.2125 0.5 0.1
0.1875 0.5 0.1
0.1625 0.5 0.1
0.1375 0.5 0.1
0.1125 0.5 0.1
0.0875 0.5 0.1
0.0625 0.5 0.1
0.0375 0.5 0.1
0.0125 0.5 0.1
0 0.475 0.1
0 0.45 0.1
0 0.425 0.1
0 0.4 0.1
0 0.375 0.1
0 0.35 0.1
0 0.325 0.1
0 0.3 0.1
0 0.275 0.1
0 0.25 0.1
0 0.225 0.1
0 0.2 0.1
0 0.175 0.1
0 0.15 0.1
0 0.125 0.1
0 0.1 0.1
0 0.075 0.1
0 0.05 0.1
0 0.025 0.1
0 0.4875 0.1
0 0.4625 0.1
0 0.4375 0.1
0 0.4125 0.1
0 0.3875 0.1
0 0.3625 0.1
0 0.3375 0.1
0 0.3125 0.1
0 0.2875 0.1
0 0.2625 0.1
0 0.2375 0.1
0 0.2125 0.1
0 0.1875 0.1
0 0.1625 0.1
0 0.1375 0.1
0 0.1125 0.1
0 0.0875 0.1
0 0.0625 0.1
0 0.0375 0.1
0 0.0125 0.1
0.975 0.475 0.1
0.975 0.45 0.1
0.975 0.425 0.1
0.975 0.4 0.1
0.975 0.375 0.1
0.975 0.35 0.1
0.975 0.325 0.1
0.975 0.3 0.1
0.975 0.275 0.1
0.975 0.25 0.1
0.975 0.225 0.1
0.975 0.2 0.1
0.975 0.175 0.1
0.975 0.15 0.1
0.975 0.125 0.1
0.975 0.1 0.1
0.975 0.075 0.1
0.975 0.05 0.1
0.975 0.025 0.1
0.95 0.475 0.1
0.95 0.45 0.1
0.95 0.425 0.1
0.95 0.4 0.1
0.95 0.375 0.1
0.95 0.35 0.1
0.95 0.325 0.1
0.95 0.3 0.1
0.95 0.275 0.1
0.95 0.25 0.1
0.95 0.225 0.1
0.95 0.2 0.1
0.95 0.175 0.1
0.95 0.15 0.1
0.95 0.125 0.1
0.95 0.1 0.1
0.95 0.075 0.1
0.95 0.05 0.1
0.95 0.025 0.1
0.925 0.475 0.1
0.925 0.45 0.1
0.925 0.425 0.1
0.925 0.4 0.1
0.925 0.375 0.1
0.925 0.35 0.1
0.925 0.325 0.1
0.925 0.3 0.1
0.925 0.275 0.1
0.925 0.25 0.1
0.925 0.225 0.1
0.925 0.2 0.1
0.925 0.175 0.1
0.925 0.15 0.1
0.925 0.125 0.1
0.925 0.1 0.1
0.925 0.075 0.1
0.925 0.05 0.1
0.925 0.025 0.1
0.9 0.475 0.1
0.9 0.45 0.1
0.9 0.425 0.1
0.9 0.4 0.1
0.9 0.375 0.1
0.9 0.35 0.1
0.9 0.325 0.1
0.9 0.3 0.1
0.9 0.275 0.1
0.9 0.25 0.1
0.9 0.225 0.1
0.9 0.2 0.1
0.9 0.175 0.1
0.9 0.15 0.1
0.9 0.125 0.1
0.9 0.1 0.1
0.9 0.075 0.1
0.9 0.05 0.1
0.9 0.025 0.1
0.875 0.475 0.1
0.875 0.45 0.1
0.875 0.425 0.1
0.875 0.4 0.1
0.875 0.375 0.1
0.875 0.35 0.1
0.875 0.325 0.1
0.875 0.3 0.1
0.875 0.275 0.1
0.875 0.25 0.1
0.875 0.225 0.1
0.875 0.2 0.1
0.875 0.175 0.1
0.875 0.15 0.1
0.875 0.125 0.1
0.875 0.1 0.1
0.875 0.075 0.1
0.875 0.05 0.1
0.875 0.025 0.1
0.85 0.475 0.1
0.85 0.45 0.1
0.85 0.425 0.1
0.85 0.4 0.1
0.85 0.375 0.1
0.85 0.35 0.1
0.85 0.325 0.1
0.85 0.3 0.1
0.85 0.275 0.1
0.85 0.25 0.1
0.85 0.225 0.1
0.85 0.2 0.1
0.85 0.175 0.1
0.85 0.15 0.1
0.85 0.125 0.1
0.85 0.1 0.1
0.85 0.075 0.1
0.85 0.05 0.1
0.85 0.025 0.1
0.825 0.475 0.1
0.825 0.45 0.1
0.825 0.425 0.1
0.825 0.4 0.1
0.825 0.375 0.1
0.825 0.35 0.1
0.825 0.325 0.1
0.825 0.3 0.1
0.825 0.275 0.1
0.825 0.25 0.1
0.825 0.225 0.1
0.825 0.2 0.1
0.825 0.175 0.1
0.825 0.15 0.1
0.825 0.125 0.1
0.825 0.1 0.1
0.825 0.075 0.1
0.825 0.05 0.1
0.825 0.025 0.1
0.8 0.475 0.1
0.8 0.45 0.1
0.8 0.425 0.1
0.8 0.4 0.1
0.8 0.375 0.1
0.8 0.35 0.1
0.8 0.325 0.1
0.8 0.3 0.1
0.8 0.275 0.1
0.8 0.25 0.1
0.8 0.225 0.1
0.8 0.2 0.1
0.8 0.175 0.1
0.8 0.15 0.1
0.8 0.125 0.1
0.8 0.1 0.1
0.8 0.075 0.1
0.8 0.05 0.1
0.8 0.025 0.1
0.775 0.475 0.1
0.775 0.45 0.1
0.775 0.425 0.1
0.775 0.4 0.1
0.775 0.375 0.1
0.775 0.35 0.1
0.775 0.325 0.1
0.775 0.3 0.1
0.775 0.275 0.1
0.775 0.25 0.1
0.775 0.225 0.1
0.775 0.2 0.1
0.775 0.175 0.1
0.775 0.15 0.1
0.775 0.125 0.1
0.775 0.1 0.1
0.775 0.075 0.1
0.775 0.05 0.1
0.775 0.025 0.1
0.75 0.475 0.1
0.75 0.45 0.1
0.75 0.425 0.1
0.75 0.4 0.1
0.75 0.375 0.1
0.75 0.35 0.1
0.75 0.325 0.1
0.75 0.3 0.1
0.75 0.275 0.1
0.75 0.25 0.1
0.75 0.225 0.1
0.75 0.2 0.1
0.75 0.175 0.1
0.75 0.15 0.1
0.75 0.125 0.1
0.75 0.1 0.1
0.75 0.075 0.1
0.75 0.05 0.1
0.75 0.025 0.1
0.725 0.475 0.1
0.725 0.45 0.1
0.725 0.425 0.1
0.725 0.4 0.1
0.725 0.375 0.1
0.725 0.35 0.1
0.725 0.325 0.1
0.725 0.3 0.1
0.725 0.275 0.1
0.725 0.25 0.1
0.725 0.225 0.1
0.725 0.2 0.1
0.725 0.175 0.1
0.725 0.15 0.1
0.725 0.125 0.1
0.725 0.1 0.1
0.725 0.075 0.1
0.725 0.05 0.1
0.725 0.025 0.1
0.7 0.475 0.1
0.7 0.45 0.1
0.7 0.425 0.1
0.7 0.4 0.1
0.7 0.375 0.1
0.7 0.35 0.1
0.7 0.325 0.1
0.7 0.3 0.1
0.7 0.275 0.1
0.7 0.25 0.1
0.7 0.225 0.1
0.7 0.2 0.1
0.7 0.175 0.1
0.7 0.15 0.1
0.7 0.125 0.1
0.7 0.1 0.1
0.7 0.075 0.1
0.7 0.05 0.1
0.7 0.025 0.1
0.675 0.475 0.1
0.675 0.45 0.1
0.675 0.425 0.1
0.675 0.4 0.1
0.675 0.375 0.1
0.675 0.35 0.1
0.675 0.325 0.1
0.675 0.3 0.1
0.675 0.275 0.1
0.675 0.25 0.1
0.675 0.225 0.1
0.675 0.2 0.1
0.675 0.175 0.1
0.675 0.15 0.1
0.675 0.125 0.1
0.675 0.1 0.1
0.675 0.075 0.1
0.675 0.05 0.1
0.675 0.025 0.1
0.65 0.475 0.1
0.65 0.45 0.1
0.65 0.425 0.1
0.65 0.4 0.1
0.65 0.375 0.1
0.65 0.35 0.1
0.65 0.325 0.1
0.65 0.3 0.1
0.65 0.275 0.1
0.65 0.25 0.1
0.65 0.225 0.1
0.65 0.2 0.1
0.65 0.175 0.1
0.65 0.15 0.1
0.65 0.125 0.1
0.65 0.1 0.1
0.65 0.075 0.1
0.65 0.05 0.1
0.65 0.025 0.1
0.625 0.475 0.1
0.625 0.45 0.1
0.625 0.425 0.1
0.625 0.4 0.1
0.625 0.375 0.1
0.625 0.35 0.1
0.625 0.325 0.1
0.625 0.3 0.1
0.625 0.275 0.1
0.625 0.25 0.1
0.625 0.225 0.1
0.625 0.2 0.1
0.625 0.175 0.1
0.625 0.15 0.1
0.625 0.125 0.1
0.625 0.1 0.1
0.625 0.075 0.1
0.625 0.05 0.1
0.625 0.025 0.1
0.6 0.475 0.1
0.6 0.45 0.1
0.6 0.425 0.1
0.6 0.4 0.1
0.6 0.375 0.1
0.6 0.35 0.1
0.6 0.325 0.1
0.6 0.3 0.1
0.6 0.275 0.1
0.6 0.25 0.1
0.6 0.225 0.1
0.6 0.2 0.1
0.6 0.175 0.1
0.6 0.15 0.1
0.6 0.125 0.1
0.6 0.1 0.1
0.6 0.075 0.1
0.6 0.05 0.1
0.6 0.025 0.1
0.575 0.475 0.1
0.575 0.45 0.1
0.575 0.425 0.1
0.575 0.4 0.1
0.575 0.375 0.1
0.575 0.35 0.1
0.575 0.325 0.1
0.575 0.3 0.1
0.575 0.275 0.1
0.575 0.25 0.1
0.575 0.225 0.1
0.575 0.2 0.1
0.575 0.175 0.1
0.575 0.15 0.1
0.575 0.125 0.1
0.575 0.1 0.1
0.575 0.075 0.1
0.575 0.05 0.1
0.575 0.025 0.1
0.55 0.475 0.1
0.55 0.45 0.1
0.55 0.425 0.1
0.55 0.4 0.1
0.55 0.375 0.1
0.55 0.35 0.1
0.55 0.325 0.1
0.55 0.3 0.1
0.55 0.275 0.1
0.55 0.25 0.1
0.55 0.225 0.1
0.55 0.2 0.1
0.55 0.175 0.1
0.55 0.15 0.1
0.55 0.125 0.1
0.55 0.1 0.1
0.55 0.075 0.1
0.55 0.05 0.1
0.55 0.025 0.1
0.525 0.475 0.1
0.525 0.45 0.1
0.525 0.425 0.1
0.525 0.4 0.1
0.525 0.375 0.1
0.525 0.35 0.1
0.525 0.325 0.1
0.525 0.3 0.1
0.525 0.275 0.1
0.525 0.25 0.1
0.525 0.225 0.1
0.525 0.2 0.1
0.525 0.175 0.1
0.525 0.15 0.1
0.525 0.125 0.1
0.525 0.1 0.1
0.525 0.075 0.1
0.525 0.05 0.1
0.525 0.025 0.1
0.5 0.475 0.1
0.5 0.45 0.1
0.5 0.425 0.1
0.5 0.4 0.1
0.5 0.375 0.1
0.5 0.35 0.1
0.5 0.325 0.1
0.5 0.3 0.1
0.5 0.275 0.1
0.5 0.25 0.1
0.5 0.225 0.1
0.5 0.2 0.1
0.5 0.175 0.1
0.5 0.15 0.1
0.5 0.125 0.1
0.5 0.1 0.1
0.5 0.075 0.1
0.5 0.05 0.1
0.5 0.025 0.1
0.475 0.475 0.1
0.475 0.45 0.1
0.475 0.425 0.1
0.475 0.4 0.1
0.475 0.375 0.1
0.475 0.35 0.1
0.475 0.325 0.1
0.475 0.3 0.1
0.475 0.275 0.1
0.475 0.25 0.1
0.475 0.225 0.1
0.475 0.2 0.1
0.475 0.175 0.1
0.475 0.15 0.1
0.475 0.125 0.1
0.475 0.1 0.1
0.475 0.075 0.1
0.475 0.05 0.1
0.475 0.025 0.1
0.45 0.475 0.1
0.45 0.45 0.1
0.45 0.425 0.1
0.45 0.4 0.1
0.45 0.375 0.1
0.45 0.35 0.1
0.45 0.325 0.1
0.45 0.3 0.1
0.45 0.275 0.1
0.45 0.25 0.1
0.45 0.225 0.1
0.45 0.2 0.1
0.45 0.175 0.1
0.45 0.15 0.1
0.45 0.125 0.1
0.45 0.1 0.1
0.45 0.075 0.1
0.45 0.05 0.1
0.45 0.025 0.1
0.425 0.475 0.1
0.425 0.45 0.1
0.425 0.425 0.1
0.425 0.4 0.1
0.425 0.375 0.1
0.425 0.35 0.1
0.425 0.325 0.1
0.425 0.3 0.1
0.425 0.275 0.1
0.425 0.25 0.1
0.425 0.225 0.1
0.425 0.2 0.1
0.425 0.175 0.1
0.425 0.15 0.1
0.425 0.125 0.1
0.425 0.1 0.1
0.425 0.075 0.1
0.425 0.05 0.1
0.425 0.025 0.1
0.4 0.475 0.1
0.4 0.45 0.1
0.4 0.425 0.1
0.4 0.4 0.1
0.4 0.375 0.1
0.4 0.35 0.1
0.4 0.325 0.1
0.4 0.3 0.1
0.4 0.275 0.1
0.4 0.25 0.1
0.4 0.225 0.1
0.4 0.2 0.1
0.4 0.175 0.1
0.4 0.15 0.1
0.4 0.125 0.1
0.4 0.1 0.1
0.4 0.075 0.1
0.4 0.05 0.1
0.4 0.025 0.1
0.375 0.475 0.1
0.375 0.45 0.1
0.375 0.425 0.1
0.375 0.4 0.1
0.375 0.375 0.1
[...]
    <PointData>
      <DataArray type="Float64" NumberOfComponents="3" Name="Velocity" format="ascii">
0 0 0
0 0 0
0 0 0
0 0 0
0 0 0
0 0 0
0 0 0
0 0 0
0 0 0
0 0 0
0 0 0
0 0 0
0 0 0
0 0 0
0 0 0
0 0 0
0 0 0
0 0 0
0 0 0
0 0 0
0 0 0
0 0 0
0 0 0
0 0 0
0 0 0
0 0 0
0 0 0
0 0 0
0 0 0
0 0 0
0 0 0
0 0 0
0 0 0
0 0 0
0 0 0
0 0 0
0 0 0
0 0 0
0 0 0
0 0 0
0 0 0
0 0 0
0 0 0
0 0 0
0 0 0
0 0 0
0 0 0
0 0 0
0 0 0
0 0 0
0 0 0
0 0 0
0 0 0
0 0 0
0 0 0
0 0 0
0 0 0
0 0 0
0 0 0
0 0 0
0 0 0
0 0 0
0 0 0
0 0 0
0 0 0
0 0 0
0 0 0
0 0 0
0 0 0
0 0 0
0 0 0
0 0 0
0 0 0
0 0 0
0 0 0
0 0 0
0 0 0
0 0 0
0 0 0
0 0 0
0 0 0
0 0 0
0 0 0
0 0 0
0 0 0
0 0 0
0 0 0
0 0 0
0 0 0
0 0 0
0 0 0
0 0 0
0 0 0
0 0 0
0 0 0
0 0 0
0 0 0
0 0 0
0 0 0
0 0 0
0 0 0
0 0 0
0 0 0
0 0 0
0 0 0
0 0 0
0 0 0
0 0 0
0 0 0
0 0 0
0 0 0
0 0 0
0 0 0
0 0 0
0 0 0
0 0 0
0 0 0
0 0 0
0 0 0
0 0 0
0 0 0
0 0 0
-0.0250987 -0.00479644 0
-0.0185803 -0.0250725 0
-0.0259003 -0.0566837 0
-0.0401299 -0.0662836 0
-0.0496645 -0.0669522 0
-0.0567504 -0.0678501 0
-0.0670381 -0.0684299 0
-0.0793154 -0.0706421 0
-0.0894052 -0.0705689 0
-0.0976126 -0.0664885 0
-0.104721 -0.0602415 0
-0.111969 -0.0533904 0
-0.11861 -0.047316 0
-0.124274 -0.0405957 0
-0.128706 -0.0337991 0
-0.131629 -0.0272668 0
-0.133248 -0.0191166 0
-0.135084 -0.0107783 0
-0.135569 -0.0029278 0
-0.136411 0.00335046 0
-0.135329 0.00928945 0
-0.133357 0.0160212 0
-0.130709 0.0233357 0
-0.127456 0.0307757 0
-0.123672 0.0375628 0
-0.118021 0.0428706 0
-0.110998 0.0473291 0
-0.103133 0.0520401 0
-0.0959626 0.0575121 0
-0.0889154 0.0633325 0
-0.0807016 0.0673605 0
-0.070257 0.0670415 0
-0.0597087 0.062578 0
-0.0506719 0.0596249 0
-0.0434375 0.0620366 0
-0.0352371 0.0639194 0
-0.0219528 0.0521852 0
-0.0145496 0.0187737 0
-0.0244174 -0.0029636 0
-0.0262875 -0.0256196 0
-0.0204294 -0.010403 0
-0.0205808 -0.0420366 0
-0.033316 -0.0627241 0
-0.0453505 -0.0673082 0
-0.0531827 -0.0672674 0
-0.0613014 -0.0674651 0
-0.0732179 -0.0695316 0
-0.0846778 -0.0711223 0
-0.093612 -0.0688057 0
-0.101145 -0.0633871 0
-0.108268 -0.0565791 0
-0.115434 -0.0502606 0
-0.121516 -0.0439833 0
-0.12659 -0.0372095 0
-0.130377 -0.0303793 0
-0.132375 -0.0232137 0
-0.134095 -0.0148519 0
-0.135299 -0.00704094 0
-0.136155 0.000522848 0
-0.135934 0.00625143 0
-0.134417 0.0125317 0
-0.132122 0.0195872 0
-0.12921 0.0270771 0
-0.125667 0.0344039 0
-0.121057 0.0402329 0
-0.11465 0.0451407 0
-0.106983 0.0495763 0
-0.0995105 0.0547967 0
-0.0924999 0.0605595 0
-0.0850713 0.0655502 0
-0.0755918 0.067538 0
-0.0648843 0.0647865 0
-0.0550091 0.0606883 0
-0.0469771 0.0607676 0
-0.0399773 0.0633525 0
-0.0291499 0.0592233 0
-0.0155962 0.0375067 0
-0.0199896 0.00225296 0
-0.0163371 0.0173864 0
0 0 0
0 0 0
0 0 0
0 0 0
0 0 0
0 0 0
0 0 0
0 0 0
0 0 0
0 0 0
0 0 0
0 0 0
0 0 0
0 0 0
0 0 0
0 0 0
0 0 0
0 0 0
0 0 0
0 0 0
0 0 0
0 0 0
0 0 0
0 0 0
0 0 0
0 0 0
0 0 0
0 0 0
0 0 0
0 0 0
0 0 0
0 0 0
0 0 0
0 0 0
0 0 0
0 0 0
0 0 0
0 0 0
0 0 0
-0.0122278 -0.0100233 0
-0.00675598 -0.00862173 0
-0.0140145 -0.00967359 0
-0.0178394 -0.0093964 0
-0.0108063 -0.00571047 0
-0.0112843 -0.00366154 0
-0.0114071 -0.0026206 0
-0.0113396 -0.00201136 0
-0.011274 -0.0015686 0
-0.0112291 -0.00119692 0
-0.011196 -0.000888796 0
-0.0111725 -0.000633225 0
-0.0111533 -0.000423467 0
-0.0111353 -0.000253293 0
-0.0111164 -0.000118991 0
-0.0110926 -2.64183e-05 0
-0.0110586 1.60997e-05 0
-0.0110185 9.65295e-06 0
-0.0109795 -2.16369e-05 0
-0.0111965 -0.0225875 0
-0.00755375 -0.0156459 0
-0.0126059 -0.0129128 0
-0.0210243 -0.016485 0
-0.0166721 -0.012301 0
-0.0140294 -0.00804109 0
-0.0127768 -0.00596736 0
-0.0122102 -0.00472155 0
-0.0119211 -0.00375518 0
-0.0117463 -0.00293897 0
-0.0116257 -0.00225552 0
-0.0115308 -0.00168899 0
-0.0114538 -0.00121992 0
-0.0113832 -0.000832513 0
-0.0113088 -0.00052079 0
-0.0112213 -0.000284789 0
-0.0111186 -0.000129616 0
-0.0110131 -5.03181e-05 0
-0.0109542 -1.49154e-05 0
-0.019218 -0.0391163 0
-0.0143497 -0.0285528 0
-0.0160427 -0.019493 0
-0.0228991 -0.0131555 0
-0.0204524 -0.0123962 0
-0.016506 -0.0110677 0
-0.0145513 -0.00924209 0
-0.0136045 -0.00756616 0
-0.0130604 -0.00609134 0
-0.0126906 -0.0048246 0
-0.0124131 -0.00375692 0
-0.0121913 -0.00286889 0
-0.0120052 -0.00213188 0
-0.0118376 -0.00152096 0
-0.0116706 -0.00102075 0
-0.0114889 -0.000625199 0
-0.0112878 -0.000334017 0
-0.011092 -0.00014326 0
-0.0109763 -3.46695e-05 0
-0.0297752 -0.051164 0
-0.0240323 -0.0384141 0
-0.0256686 -0.0267834 0
-0.0278851 -0.0176145 0
-0.0213667 -0.0161579 0
-0.0183746 -0.0145415 0
-0.0166284 -0.0124027 0
-0.0154949 -0.0102384 0
-0.0146783 -0.00827039 0
-0.0140479 -0.00657606 0
-0.0135433 -0.00515231 0
-0.0131339 -0.003969 0
-0.0127924 -0.00298683 0
-0.0124914 -0.0021712 0
-0.0122029 -0.00149808 0
-0.0119031 -0.000953984 0
-0.0115841 -0.000534711 0
-0.0112737 -0.000240187 0
-0.0110554 -6.296e-05 0
-0.0409479 -0.054631 0
-0.035113 -0.0425085 0
-0.0347336 -0.0330567 0
-0.0341447 -0.0276885 0
-0.0245695 -0.0233271 0
-0.0214241 -0.0189149 0
-0.0194762 -0.0154573 0
-0.0179743 -0.0125656 0
-0.0167623 -0.0101025 0
-0.0157744 -0.00803035 0
-0.0149717 -0.00630598 0
-0.0143193 -0.00487729 0
-0.01378 -0.00369256 0
-0.0133138 -0.00270836 0
-0.0128798 -0.00189282 0
-0.0124434 -0.00122661 0
-0.0119893 -0.000702241 0
-0.0115418 -0.000322648 0
-0.0111844 -8.66389e-05 0
-0.0514281 -0.0548661 0
-0.0437341 -0.0449729 0
-0.0410621 -0.038013 0
-0.0397341 -0.0340633 0
-0.0310209 -0.0281911 0
-0.0263169 -0.0222589 0
-0.0232668 -0.0178062 0
-0.0210115 -0.0143218 0
-0.0192322 -0.0114667 0
-0.0177964 -0.00910823 0
-0.016635 -0.00715997 0
-0.015695 -0.00554903 0
-0.0149238 -0.0042137 0
-0.0142666 -0.00310425 0
-0.0136679 -0.00218345 0
-0.0130796 -0.00142748 0
-0.012475 -0.00082638 0
-0.011871 -0.000382954 0
-0.0113517 -0.000104336 0
-0.060218 -0.0559403 0
-0.0499855 -0.0472814 0
-0.0466211 -0.0404854 0
-0.0457028 -0.034684 0
-0.0381805 -0.028908 0
-0.0319075 -0.0234607 0
-0.027551 -0.0190084 0
-0.0243886 -0.015353 0
-0.0219542 -0.0123107 0
-0.0200175 -0.00978804 0
-0.0184598 -0.00770302 0
-0.0172027 -0.00597758 0
-0.0161763 -0.00454647 0
-0.0153099 -0.0033571 0
-0.0145326 -0.00236932 0
-0.0137813 -0.0015563 0
-0.0130157 -0.000905986 0
-0.0122431 -0.000422479 0
-0.0115432 -0.000116935 0
-0.068908 -0.0580915 0
-0.0569077 -0.0479302 0
-0.0531461 -0.0395666 0
-0.0526917 -0.0322814 0
-0.0441199 -0.0275822 0
-0.0369997 -0.0231991 0
-0.0317633 -0.0192217 0
-0.0278358 -0.0156988 0
-0.0247767 -0.0126567 0
-0.0223361 -0.01009 0
-0.0203709 -0.00795213 0
-0.0187841 -0.00617763 0
-0.0174908 -0.00470336 0
-0.0164052 -0.00347741 0
-0.0154414 -0.00245917 0
-0.0145207 -0.00161962 0
-0.0135881 -0.000945408 0
-0.012639 -0.000441996 0
-0.0117478 -0.000123078 0
-0.0784458 -0.0581519 0
-0.0655655 -0.0468347 0
-0.0608206 -0.037736 0
-0.0595421 -0.0306866 0
-0.0489823 -0.0265232 0
-0.0414258 -0.0225395 0
-0.0356868 -0.0188774 0
-0.0311869 -0.0155319 0
-0.0275815 -0.0125818 0
-0.0246641 -0.010058 0
-0.0223001 -0.00793907 0
-0.0203853 -0.00617356 0
-0.0188237 -0.00470376 0
-0.0175171 -0.00348094 0
-0.0163651 -0.00246477 0
-0.0152734 -0.00162625 0
-0.0141731 -0.000950846 0
-0.0130475 -0.000444569 0
-0.0119623 -0.000123901 0
-0.0880839 -0.0552419 0
-0.074507 -0.0444569 0
-0.0685696 -0.0360466 0
-0.0657247 -0.0300656 0
-0.0537504 -0.0258967 0
-0.0456368 -0.0218084 0
-0.0394114 -0.0182134 0
-0.0343981 -0.0149941 0
-0.030296 -0.0121668 0
-0.0269339 -0.0097436 0
-0.0241895 -0.00770058 0
-0.0219581 -0.00599301 0
-0.0201358 -0.00456918 0
-0.0186131 -0.00338401 0
-0.0172764 -0.00239834 0
-0.0160168 -0.00158434 0
-0.0147517 -0.000927974 0
-0.0134528 -0.000433975 0
-0.0121763 -0.000120728 0
-0.0966458 -0.0497744 0
-0.0821443 -0.0409553 0
-0.0753681 -0.0339873 0
-0.071204 -0.0289997 0
-0.0587007 -0.0248264 0
-0.0498459 -0.0207346 0
-0.0430013 -0.0172149 0
-0.03745 -0.0141363 0
-0.0328716 -0.0114694 0
-0.0290925 -0.00919242 0
-0.0259918 -0.00727169 0
-0.0234622 -0.00566297 0
-0.0213926 -0.00432025 0
-0.0196641 -0.00320186 0
-0.0181507 -0.00227092 0
-0.0167308 -0.00150163 0
-0.0153084 -0.000881312 0
-0.0138441 -0.000413525 0
-0.012386 -0.00011536 0
-0.103695 -0.0441997 0
-0.0880459 -0.0369583 0
-0.080924 -0.0312251 0
-0.0762535 -0.0268024 0
-0.0634854 -0.0228559 0
-0.0538817 -0.0190792 0
-0.0463762 -0.015819 0
-0.0402882 -0.0129778 0
-0.0352591 -0.0105291 0
-0.0310948 -0.00844297 0
-0.0276666 -0.00668366 0
-0.0248622 -0.00520806 0
-0.0225643 -0.00397551 0
-0.0206446 -0.00294816 0
-0.0189667 -0.00209222 0
-0.0173974 -0.00138488 0
-0.0158285 -0.000814598 0
-0.0142093 -0.000383628 0
-0.0125789 -0.000107794 0
-0.109403 -0.0389481 0
-0.0929777 -0.032586 0
-0.0856142 -0.0274362 0
-0.0809694 -0.0234237 0
-0.0676784 -0.0201148 0
-0.0574621 -0.0169044 0
-0.0493999 -0.0140623 0
-0.0428384 -0.0115572 0
-0.0374083 -0.00938514 0
-0.0329009 -0.00753057 0
-0.0291806 -0.00596526 0
-0.0261304 -0.00465087 0
-0.0236262 -0.00355145 0
-0.0215337 -0.00263515 0
-0.019707 -0.00187125 0
-0.0180024 -0.00123965 0
-0.0163006 -0.000730602 0
-0.0145412 -0.000345571 0
-0.0127558 -9.7746e-05 0
-0.114419 -0.0338024 0
-0.0975779 -0.0278621 0
-0.089823 -0.0230873 0
-0.085079 -0.0195953 0
-0.0710978 -0.0170422 0
-0.0604454 -0.0144408 0
-0.0519814 -0.0120596 0
-0.0450448 -0.00993892 0
-0.0392793 -0.00808276 0
-0.0344789 -0.0064898 0
-0.0305061 -0.00514297 0
-0.0272412 -0.00401096 0
-0.0245579 -0.00306381 0
-0.0223144 -0.00227411 0
-0.0203573 -0.00161579 0
-0.018534 -0.00107145 0
-0.0167157 -0.000632766 0
-0.0148331 -0.000300821 0
-0.0129107 -8.57939e-05 0
-0.118843 -0.0280021 0
-0.101781 -0.0227607 0
-0.0935947 -0.0185954 0
-0.0883674 -0.0158812 0
-0.073863 -0.0139458 0
-0.0628823 -0.011859 0
-0.0541149 -0.00992094 0
-0.0468865 -0.00818778 0
-0.040849 -0.006665 0
-0.0358067 -0.00535291 0
-0.0316239 -0.00424147 0
-0.0281795 -0.00330778 0
-0.0253447 -0.00252654 0
-0.0229739 -0.00187572 0
-0.0209068 -0.00133347 0
-0.0189835 -0.000884857 0
-0.0170667 -0.000523572 0
-0.0150798 -0.000249996 0
-0.0130418 -7.12264e-05 0
-0.122213 -0.0214382 0
-0.105022 -0.0174339 0
-0.096669 -0.0142681 0
-0.0909023 -0.0122938 0
-0.0761179 -0.0108256 0
-0.0648525 -0.00920539 0
-0.0558256 -0.00769595 0
-0.0483593 -0.00635008 0
-0.0421054 -0.00516817 0
-0.03687 -0.00414865 0
-0.0325197 -0.00328355 0
-0.0289319 -0.00255825 0
-0.0259764 -0.00195316 0
-0.023503 -0.00144997 0
-0.0213477 -0.00103118 0
-0.0193442 -0.000685086 0
-0.017349 -0.000405944 0
-0.0152784 -0.000194295 0
-0.0131478 -5.50313e-05 0
-0.124473 -0.014957 0
-0.107134 -0.0121963 0
-0.0989067 -0.0099901 0
-0.0928343 -0.00862064 0
-0.077868 -0.00760744 0
-0.0663522 -0.00647315 0
-0.0571091 -0.00540813 0
-0.0494556 -0.00445588 0
-0.0430375 -0.00362209 0
-0.0376589 -0.00290215 0
-0.033184 -0.00228988 0
-0.029489 -0.00177867 0
-0.0264426 -0.00135627 0
-0.0238945 -0.00100691 0
-0.0216748 -0.00071641 0
-0.0196121 -0.000476216 0
-0.0175583 -0.000282563 0
-0.0154259 -0.000135503 0
-0.0132265 -3.78898e-05 0
-0.125865 -0.00873186 0
-0.108372 -0.00700352 0
-0.100393 -0.00564032 0
-0.094243 -0.00481133 0
-0.0790342 -0.0042989 0
-0.0673349 -0.00369138 0
-0.0579409 -0.00308847 0
-0.0501681 -0.00253637 0
-0.043642 -0.00205327 0
-0.0381685 -0.00163617 0
-0.0336121 -0.00127939 0
-0.0298474 -0.000984438 0
-0.026743 -0.000748416 0
-0.024146 -0.000556041 0
-0.0218846 -0.000395698 0
-0.0197842 -0.000263079 0
-0.0176933 -0.000156596 0
-0.0155213 -7.52587e-05 0
-0.0132773 -1.98679e-05 0
-0.126536 -0.00250991 0
-0.108936 -0.00170028 0
-0.101176 -0.00109677 0
-0.0950123 -0.000923883 0
-0.0795915 -0.0010115 0
-0.0678035 -0.000920639 0
-0.0583434 -0.000774989 0
-0.0505024 -0.000620841 0
-0.0439212 -0.000485401 0
-0.0383988 -0.000370381 0
-0.0338024 -0.000269687 0
-0.0300056 -0.000191245 0
-0.0268756 -0.000141436 0
-0.0242566 -0.000105499 0
-0.0219765 -7.51412e-05 0
-0.0198593 -4.99426e-05 0
-0.0177518 -2.98605e-05 0
-0.0155624 -1.41818e-05 0
-0.0132993 -2.37826e-06 0
-0.126563 0.00375276 0
-0.108793 0.0035899 0
-0.101194 0.00339327 0
-0.0950194 0.00284674 0
-0.0795628 0.00219138 0
-0.0677771 0.00179671 0
-0.0583116 0.00150763 0
-0.0504639 0.00127092 0
-0.0438791 0.00106099 0
-0.0383544 0.000878842 0
-0.0337547 0.000724155 0
-0.0299633 0.000585692 0
-0.026841 0.000453251 0
-0.0242271 0.000336429 0
-0.0219514 0.000239514 0
-0.0198383 0.000159429 0
-0.0177354 9.42859e-05 0
-0.0155515 4.50818e-05 0
-0.0132944 1.51769e-05 0
-0.125305 0.00978341 0
-0.107736 0.00874766 0
-0.100355 0.00774277 0
-0.0942658 0.0065239 0
-0.0789929 0.00533517 0
-0.0672732 0.00446099 0
-0.0578577 0.00374049 0
-0.050065 0.00311578 0
-0.0435295 0.00256895 0
-0.0380497 0.00209632 0
-0.0334911 0.00169207 0
-0.0297351 0.00133255 0
-0.0266456 0.00102554 0
-0.0240615 0.000763042 0
-0.0218113 0.000542942 0
-0.019723 0.000361239 0
-0.0176451 0.000214069 0
-0.0154876 0.000102242 0
-0.0132604 3.17671e-05 0
-0.123125 0.0153947 0
-0.105977 0.0136842 0
-0.0988051 0.0119911 0
-0.0928561 0.0102043 0
-0.0778659 0.00846362 0
-0.0662797 0.00707367 0
-0.0569806 0.00590229 0
-0.0493045 0.00489171 0
-0.0428761 0.00401633 0
-0.0374931 0.00326252 0
-0.0330192 0.00261483 0
-0.0293339 0.00205101 0
-0.0262991 0.00157182 0
-0.0237651 0.00116851 0
-0.0215612 0.000831186 0
-0.0195167 0.000552114 0
-0.0174832 0.000327262 0
-0.0153732 0.000156315 0
-0.0131991 4.75657e-05 0
-0.120495 0.0210338 0
-0.103699 0.0185036 0
-0.0966032 0.0159998 0
-0.0908548 0.0137341 0
-0.0761367 0.0114764 0
-0.0647899 0.00957866 0
-0.0556944 0.0079644 0
-0.0481956 0.00657718 0
-0.0419278 0.00538368 0
-0.0366871 0.00436033 0
-0.0323376 0.00348236 0
-0.0287553 0.00272851 0
-0.0258075 0.00208845 0
-0.0233456 0.00154983 0
-0.0212073 0.00110043 0
-0.0192253 0.000729743 0
-0.0172549 0.000431799 0
-0.0152127 0.000206266 0
-0.0131141 6.13437e-05 0
-0.117305 0.0267741 0
-0.100676 0.0230915 0
-0.0936525 0.0196028 0
-0.0883082 0.0168231 0
-0.0738727 0.0142167 0
-0.062836 0.0119094 0
-0.0540098 0.00989513 0
-0.0467475 0.00815187 0
-0.0406918 0.00665519 0
-0.0356391 0.00537641 0
-0.0314523 0.00428406 0
-0.0280074 0.00335451 0
-0.0251745 0.00256595 0
-0.0228105 0.00190179 0
-0.020758 0.00134772 0
-0.0188563 0.000891125 0
-0.0169668 0.000525624 0
-0.0150111 0.000250198 0
-0.0130078 7.35467e-05 0
-0.113244 0.0321719 0
-0.0967688 0.0273305 0
-0.0899877 0.0230124 0
-0.0853313 0.0196588 0
-0.0712006 0.0167427 0
-0.0604753 0.0140694 0
-0.0519505 0.0116787 0
-0.0449746 0.00959737 0
-0.0391814 0.00781401 0
-0.034362 0.00629676 0
-0.0303766 0.0050085 0
-0.0271016 0.00391938 0
-0.0244124 0.00299606 0
-0.0221697 0.00221862 0
-0.0202221 0.00156923 0
-0.0184171 0.00103481 0
-0.0166236 0.000608704 0
-0.0147696 0.000289102 0
-0.0128793 8.43092e-05 0
-0.107919 0.0369014 0
-0.0921183 0.0313052 0
-0.0858797 0.0266067 0
-0.0818876 0.022687 0
-0.0681167 0.0192417 0
-0.0577008 0.0161061 0
-0.0495197 0.0133076 0
-0.0428878 0.0108929 0
-0.0374124 0.00884061 0
-0.0328729 0.00710617 0
-0.0291271 0.0056434 0
-0.0260544 0.00441283 0
-0.0235342 0.00337174 0
-0.0214332 0.00249535 0
-0.019608 0.0017625 0
-0.017915 0.00115936 0
-0.0162321 0.000680373 0
-0.014495 0.000322377 0
-0.0127342 9.4045e-05 0
-0.101996 0.04097 0
-0.0871661 0.0352106 0
-0.0815826 0.0302753 0
-0.0776326 0.0258682 0
-0.0644026 0.0217035 0
-0.0544289 0.0179716 0
-0.0467064 0.0147345 0
-0.0405042 0.0120029 0
-0.035408 0.00970992 0
-0.0311942 0.00778747 0
-0.0277234 0.0061763 0
-0.0248814 0.00482583 0
-0.0225527 0.00368684 0
-0.0206122 0.00272725 0
-0.0189256 0.00192404 0
-0.0173583 0.00126349 0
-0.0157984 0.000740253 0
-0.0141917 0.000349827 0
-0.0125749 0.000101297 0
-0.096061 0.0449745 0
-0.0820725 0.0386626 0
-0.0769046 0.0331143 0
-0.0726403 0.0284554 0
-0.0599559 0.0237116 0
-0.0506503 0.0194541 0
-0.043546 0.0158573 0
-0.0378665 0.0128754 0
-0.0332063 0.0103939 0
-0.0293568 0.00832405 0
-0.0261904 0.00659562 0
-0.0236019 0.00515109 0
-0.021484 0.00393504 0
-0.0197202 0.00290967 0
-0.0181852 0.00205126 0
-0.0167549 0.00134557 0
-0.0153291 0.000786987 0
-0.0138636 0.000371062 0
-0.0124011 0.000107363 0
-0.0896616 0.0493617 0
-0.0760351 0.041356 0
-0.0715476 0.0345108 0
-0.067362 0.0295928 0
-0.0550341 0.0247279 0
-0.0465644 0.0203219 0
-0.04017 0.0165821 0
-0.0350576 0.0134695 0
-0.0308614 0.0108715 0
-0.0273993 0.00870212 0
-0.0245577 0.00689131 0
-0.0222404 0.00538072 0
-0.0203482 0.00410997 0
-0.018773 0.00303849 0
-0.0173993 0.00214126 0
-0.016115 0.00140368 0
-0.0148315 0.000820539 0
-0.0135154 0.000387009 0
-0.0122168 0.00011224 0
-0.08163 0.0534185 0
-0.0683231 0.0432573 0
-0.0652984 0.0348025 0
-0.0620739 0.0292138 0
-0.0502213 0.0246871 0
-0.0425246 0.020582 0
-0.0367609 0.0169241 0
-0.0321733 0.0137881 0
-0.0284325 0.0111364 0
-0.0253646 0.00891199 0
-0.0228593 0.0070543 0
-0.0208242 0.00550585 0
-0.0191678 0.00420488 0
-0.017789 0.00310873 0
-0.0165831 0.00219067 0
-0.0154507 0.00143557 0
-0.014316 0.000838803 0
-0.0131559 0.000395495 0
-0.0120277 0.000115448 0
-0.0719425 0.0556999 0
-0.0594693 0.0446337 0
-0.0579355 0.035547 0
-0.0564587 0.0287981 0
-0.0458501 0.0244093 0
-0.0387142 0.0205899 0
-0.0334047 0.0170165 0
-0.02927 0.013869 0
-0.0259661 0.0111897 0
-0.0232939 0.00894408 0
-0.0211307 0.00707341 0
-0.0193842 0.00551653 0
-0.0179677 0.00421179 0
-0.0167886 0.00311419 0
-0.0157534 0.00219459 0
-0.0147757 0.0014376 0
-0.0137929 0.000839471 0
-0.0127924 0.000396623 0
-0.0118385 0.000115473 0
-0.0623395 0.054964 0
-0.0510655 0.0450322 0
-0.0500449 0.0367996 0
-0.0500481 0.0294525 0
-0.0415877 0.024829 0
-0.0349081 0.0207241 0
-0.030008 0.0169549 0
-0.0263414 0.0137185 0
-0.0234928 0.0110159 0
-0.021227 0.00878004 0
-0.0194109 0.00693214 0
-0.017954 0.00539989 0
-0.016776 0.00412057 0
-0.015795 0.00304631 0
-0.0149294 0.0021462 0
-0.014106 0.00140474 0
-0.0132755 0.000818687 0
-0.0124359 0.000385703 0
-0.0116554 0.000111672 0
-0.0544438 0.0516786 0
-0.04456 0.0433035 0
-0.0433754 0.0370606 0
-0.0434617 0.0314165 0
-0.0366058 0.0259757 0
-0.0306201 0.0208168 0
-0.0264178 0.0165964 0
-0.0233775 0.0132461 0
-0.0210505 0.0105627 0
-0.0192113 0.00838746 0
-0.0177433 0.00660796 0
-0.0165701 0.00514006 0
-0.0156229 0.00391859 0
-0.0148329 0.00289455 0
-0.0141313 0.00203688 0
-0.0134581 0.0013302 0
-0.0127765 0.000771855 0
-0.0120939 0.000361284 0
-0.0114794 0.000103686 0
-0.0473301 0.0495406 0
-0.0391859 0.0406542 0
-0.0389078 0.0354986 0
-0.0372904 0.0321258 0
-0.0301781 0.0257316 0
-0.0256793 0.0198543 0
-0.022698 0.0155312 0
-0.0204757 0.0122877 0
-0.0187187 0.00975679 0
-0.0173068 0.00772853 0
-0.016174 0.00607736 0
-0.0152687 0.00471933 0
-0.0145384 0.00359139 0
-0.0139276 0.00264687 0
-0.0133805 0.00185669 0
-0.0128497 0.0012064 0
-0.0123098 0.000693884 0
-0.0117757 0.000320719 0
-0.0113181 9.18309e-05 0
-0.0384785 0.0498913 0
-0.0329411 0.038016 0
-0.0349539 0.031244 0
-0.0315592 0.0266342 0
-0.0235905 0.0212287 0
-0.021079 0.0168803 0
-0.0193548 0.0134716 0
-0.0178667 0.0107564 0
-0.0166105 0.00856187 0
-0.0155788 0.00678134 0
-0.0147483 0.0053235 0
-0.0140859 0.00412304 0
-0.0135525 0.00312603 0
-0.0131051 0.00229235 0
-0.0126998 0.00159678 0
-0.0123005 0.00102672 0
-0.011892 0.000580521 0
-0.0114954 0.00026212 0
-0.0111804 7.36851e-05 0
-0.0272147 0.0476819 0
-0.0249028 0.0348459 0
-0.0275426 0.025345 0
-0.0254278 0.0160579 0
-0.0200295 0.0139779 0
-0.0183142 0.0127481 0
-0.0169026 0.0107779 0
-0.015736 0.00877603 0
-0.0148107 0.00701771 0
-0.0140827 0.00555501 0
-0.0135097 0.00434632 0
-0.0130582 0.00334855 0
-0.0126968 0.0025197 0
-0.0123928 0.00182845 0
-0.012113 0.00125545 0
-0.0118311 0.000790365 0
-0.0115398 0.000431277 0
-0.0112634 0.000184341 0
-0.0110691 4.93672e-05 0
-0.0168255 0.0359291 0
-0.0178121 0.0273993 0
-0.0179353 0.0193128 0
-0.0190891 0.011589 0
-0.0197862 0.010744 0
-0.0169898 0.00975982 0
-0.0151166 0.00815332 0
-0.0140271 0.00657315 0
-0.0133389 0.00521705 0
-0.0128576 0.00409867 0
-0.012499 0.00318052 0
-0.0122221 0.00242395 0
-0.0120019 0.00179586 0
-0.011817 0.0012748 0
-0.0116438 0.000849134 0
-0.0114625 0.000511069 0
-0.0112716 0.000256907 0
-0.011097 9.49739e-05 0
-0.010996 2.26116e-05 0
-0.0112434 0.0198142 0
-0.0128168 0.0163391 0
-0.0144309 0.0139939 0
-0.0160084 0.0171084 0
-0.0171286 0.0121372 0
-0.0147256 0.00789996 0