<?xml version="1.0"?>
<VTKFile type="UnstructuredGrid">
  <UnstructuredGrid>
  <Piece NumberOfPoints="4352"  NumberOfCells="2048">
    <Points>
      <DataArray type="Float64" NumberOfComponents="3" format="ascii">
0 0 0.1
0.2 0 0.1
0.5 0 0.1
0.8 0 0.1
1 0 0.1
0 0.2 0.1
0.2 0.2 0.1
0.5 0.2 0.1
0.8 0.2 0.1
1 0.2 0.1
0 0.5 0.1
0.2 0.5 0.1
0.8 0.5 0.1
1 0.5 0.1
0 0.8 0.1
0.2 0.8 0.1
0.5 0.8 0.1
0.8 0.8 0.1
1 0.8 0.1
0 1 0.1
0.2 1 0.1
0.5 1 0.1
0.8 1 0.1
1 1 0.1
0.025 0 0.1
0.05 0 0.1
0.075 0 0.1
0.1 0 0.1
0.125 0 0.1
0.15 0 0.1
0.175 0 0.1
0.0125 0 0.1
0.0375 0 0.1
0.0625 0 0.1
0.0875 0 0.1
0.1125 0 0.1
0.1375 0 0.1
0.1625 0 0.1
0.1875 0 0.1
0.225 0 0.1
0.25 0 0.1
0.275 0 0.1
0.3 0 0.1
0.325 0 0.1
0.35 0 0.1
0.375 0 0.1
0.4 0 0.1
0.425 0 0.1
0.45 0 0.1
0.475 0 0.1
0.2125 0 0.1
0.2375 0 0.1
0.2625 0 0.1
0.2875 0 0.1
0.3125 0 0.1
0.3375 0 0.1
0.3625 0 0.1
0.3875 0 0.1
0.4125 0 0.1
0.4375 0 0.1
0.4625 0 0.1
0.4875 0 0.1
0.525 0 0.1
0.55 0 0.1
0.575 0 0.1
0.6 0 0.1
0.625 0 0.1
0.65 0 0.1
0.675 0 0.1
0.7 0 0.1
0.725 0 0.1
0.75 0 0.1
0.775 0 0.1
0.5125 0 0.1
0.5375 0 0.1
0.5625 0 0.1
0.5875 0 0.1
0.6125 0 0.1
0.6375 0 0.1
0.6625 0 0.1
0.6875 0 0.1
0.7125 0 0.1
0.7375 0 0.1
0.7625 0 0.1
0.7875 0 0.1
0.825 0 0.1
0.85 0 0.1
0.875 0 0.1
0.9 0 0.1
0.925 0 0.1
0.95 0 0.1
0.975 0 0.1
0.8125 0 0.1
0.8375 0 0.1
0.8625 0 0.1
0.8875 0 0.1
0.9125 0 0.1
0.9375 0 0.1
0.9625 0 0.1
0.9875 0 0.1
0 0.025 0.1
0 0.05 0.1
0 0.075 0.1
0 0.1 0.1
0 0.125 0.1
0 0.15 0.1
0 0.175 0.1
0 0.0125 0.1
0 0.0375 0.1
0 0.0625 0.1
0 0.0875 0.1
0 0.1125 0.1
0 0.1375 0.1
0 0.1625 0.1
0 0.1875 0.1
0.2 0.025 0.1
0.2 0.05 0.1
0.2 0.075 0.1
0.2 0.1 0.1
0.2 0.125 0.1
0.2 0.15 0.1
0.2 0.175 0.1
0.2 0.0125 0.1
0.2 0.0375 0.1
0.2 0.0625 0.1
0.2 0.0875 0.1
0.2 0.1125 0.1
0.2 0.1375 0.1
0.2 0.1625 0.1
0.2 0.1875 0.1
0.5 0.025 0.1
0.5 0.05 0.1
0.5 0.075 0.1
0.5 0.1 0.1
0.5 0.125 0.1
0.5 0.15 0.1
0.5 0.175 0.1
0.5 0.0125 0.1
0.5 0.0375 0.1
0.5 0.0625 0.1
0.5 0.0875 0.1
0.5 0.1125 0.1
0.5 0.1375 0.1
0.5 0.1625 0.1
0.5 0.1875 0.1
0.8 0.025 0.1
0.8 0.05 0.1
0.8 0.075 0.1
0.8 0.1 0.1
0.8 0.125 0.1
0.8 0.15 0.1
0.8 0.175 0.1
0.8 0.0125 0.1
0.8 0.0375 0.1
0.8 0.0625 0.1
0.8 0.0875 0.1
0.8 0.1125 0.1
0.8 0.1375 0.1
0.8 0.1625 0.1
0.8 0.1875 0.1
1 0.025 0.1
1 0.05 0.1
1 0.075 0.1
1 0.1 0.1
1 0.125 0.1
1 0.15 0.1
1 0.175 0.1
1 0.0125 0.1
1 0.0375 0.1
1 0.0625 0.1
1 0.0875 0.1
1 0.1125 0.1
1 0.1375 0.1
1 0.1625 0.1
1 0.1875 0.1
0.025 0.2 0.1
0.05 0.2 0.1
0.075 0.2 0.1
0.1 0.2 0.1
0.125 0.2 0.1
0.15 0.2 0.1
0.175 0.2 0.1
0.0125 0.2 0.1
0.0375 0.2 0.1
0.0625 0.2 0.1
0.0875 0.2 0.1
0.1125 0.2 0.1
0.1375 0.2 0.1
0.1625 0.2 0.1
0.1875 0.2 0.1
0.225 0.2 0.1
0.25 0.2 0.1
0.275 0.2 0.1
0.3 0.2 0.1
0.325 0.2 0.1
0.35 0.2 0.1
0.375 0.2 0.1
0.4 0.2 0.1
0.425 0.2 0.1
0.45 0.2 0.1
0.475 0.2 0.1
0.2125 0.2 0.1
0.2375 0.2 0.1
0.2625 0.2 0.1
0.2875 0.2 0.1
0.3125 0.2 0.1
0.3375 0.2 0.1
0.3625 0.2 0.1
0.3875 0.2 0.1
0.4125 0.2 0.1
0.4375 0.2 0.1
0.4625 0.2 0.1
0.4875 0.2 0.1
0.525 0.2 0.1
0.55 0.2 0.1
0.575 0.2 0.1
0.6 0.2 0.1
0.625 0.2 0.1
0.65 0.2 0.1
0.675 0.2 0.1
0.7 0.2 0.1
0.725 0.2 0.1
0.75 0.2 0.1
0.775 0.2 0.1
0.5125 0.2 0.1
0.5375 0.2 0.1
0.5625 0.2 0.1
0.5875 0.2 0.1
0.6125 0.2 0.1
0.6375 0.2 0.1
0.6625 0.2 0.1
0.6875 0.2 0.1
0.7125 0.2 0.1
0.7375 0.2 0.1
0.7625 0.2 0.1
0.7875 0.2 0.1
0.825 0.2 0.1
0.85 0.2 0.1
0.875 0.2 0.1
0.9 0.2 0.1
0.925 0.2 0.1
0.95 0.2 0.1
0.975 0.2 0.1
0.8125 0.2 0.1
0.8375 0.2 0.1
0.8625 0.2 0.1
0.8875 0.2 0.1
0.9125 0.2 0.1
0.9375 0.2 0.1
0.9625 0.2 0.1
0.9875 0.2 0.1
0 0.225 0.1
0 0.25 0.1
0 0.275 0.1
0 0.3 0.1
0 0.325 0.1
0 0.35 0.1
0 0.375 0.1
0 0.4 0.1
0 0.425 0.1
0 0.45 0.1
0 0.475 0.1
0 0.2125 0.1
0 0.2375 0.1
0 0.2625 0.1
0 0.2875 0.1
0 0.3125 0.1
0 0.3375 0.1
0 0.3625 0.1
0 0.3875 0.1
0 0.4125 0.1
0 0.4375 0.1
0 0.4625 0.1
0 0.4875 0.1
0.2 0.225 0.1
0.2 0.25 0.1
0.2 0.275 0.1
0.2 0.3 0.1
0.2 0.325 0.1
0.2 0.35 0.1
0.2 0.375 0.1
0.2 0.4 0.1
0.2 0.425 0.1
0.2 0.45 0.1
0.2 0.475 0.1
0.2 0.2125 0.1
0.2 0.2375 0.1
0.2 0.2625 0.1
0.2 0.2875 0.1
0.2 0.3125 0.1
0.2 0.3375 0.1
0.2 0.3625 0.1
0.2 0.3875 0.1
0.2 0.4125 0.1
0.2 0.4375 0.1
0.2 0.4625 0.1
0.2 0.4875 0.1
0.8 0.225 0.1
0.8 0.25 0.1
0.8 0.275 0.1
0.8 0.3 0.1
0.8 0.325 0.1
0.8 0.35 0.1
0.8 0.375 0.1
0.8 0.4 0.1
0.8 0.425 0.1
0.8 0.45 0.1
0.8 0.475 0.1
0.8 0.2125 0.1
0.8 0.2375 0.1
0.8 0.2625 0.1
0.8 0.2875 0.1
0.8 0.3125 0.1
0.8 0.3375 0.1
0.8 0.3625 0.1
0.8 0.3875 0.1
0.8 0.4125 0.1
0.8 0.4375 0.1
0.8 0.4625 0.1
0.8 0.4875 0.1
1 0.225 0.1
1 0.25 0.1
1 0.275 0.1
1 0.3 0.1
1 0.325 0.1
1 0.35 0.1
1 0.375 0.1
1 0.4 0.1
1 0.425 0.1
1 0.45 0.1
1 0.475 0.1
1 0.2125 0.1
1 0.2375 0.1
1 0.2625 0.1
1 0.2875 0.1
1 0.3125 0.1
1 0.3375 0.1
1 0.3625 0.1
1 0.3875 0.1
1 0.4125 0.1
1 0.4375 0.1
1 0.4625 0.1
1 0.4875 0.1
0.025 0.5 0.1
0.05 0.5 0.1
0.075 0.5 0.1
0.1 0.5 0.1
0.125 0.5 0.1
0.15 0.5 0.1
0.175 0.5 0.1
0.0125 0.5 0.1
0.0375 0.5 0.1
0.0625 0.5 0.1
0.0875 0.5 0.1
0.1125 0.5 0.1
0.1375 0.5 0.1
0.1625 0.5 0.1
0.1875 0.5 0.1
0.825 0.5 0.1
0.85 0.5 0.1
0.875 0.5 0.1
0.9 0.5 0.1
0.925 0.5 0.1
0.95 0.5 0.1
0.975 0.5 0.1
0.8125 0.5 0.1
0.8375 0.5 0.1
0.8625 0.5 0.1
0.8875 0.5 0.1
0.9125 0.5 0.1
0.9375 0.5 0.1
0.9625 0.5 0.1
0.9875 0.5 0.1
0 0.525 0.1
0 0.55 0.1
0 0.575 0.1
0 0.6 0.1
0 0.625 0.1
0 0.65 0.1
0 0.675 0.1
0 0.7 0.1
0 0.725 0.1
0 0.75 0.1
0 0.775 0.1
0 0.5125 0.1
0 0.5375 0.1
0 0.5625 0.1
0 0.5875 0.1
0 0.6125 0.1
0 0.6375 0.1
0 0.6625 0.1
0 0.6875 0.1
0 0.7125 0.1
0 0.7375 0.1
0 0.7625 0.1
0 0.7875 0.1
0.2 0.525 0.1
0.2 0.55 0.1
0.2 0.575 0.1
0.2 0.6 0.1
0.2 0.625 0.1
0.2 0.65 0.1
0.2 0.675 0.1
0.2 0.7 0.1
0.2 0.725 0.1
0.2 0.75 0.1
0.2 0.775 0.1
0.2 0.5125 0.1
0.2 0.5375 0.1
0.2 0.5625 0.1
0.2 0.5875 0.1
0.2 0.6125 0.1
0.2 0.6375 0.1
0.2 0.6625 0.1
0.2 0.6875 0.1
0.2 0.7125 0.1
0.2 0.7375 0.1
0.2 0.7625 0.1
0.2 0.7875 0.1
0.8 0.525 0.1
0.8 0.55 0.1
0.8 0.575 0.1
0.8 0.6 0.1
0.8 0.625 0.1
0.8 0.65 0.1
0.8 0.675 0.1
0.8 0.7 0.1
0.8 0.725 0.1
0.8 0.75 0.1
0.8 0.775 0.1
0.8 0.5125 0.1
0.8 0.5375 0.1
0.8 0.5625 0.1
0.8 0.5875 0.1
0.8 0.6125 0.1
0.8 0.6375 0.1
0.8 0.6625 0.1
0.8 0.6875 0.1
0.8 0.7125 0.1
0.8 0.7375 0.1
0.8 0.7625 0.1
0.8 0.7875 0.1
1 0.525 0.1
1 0.55 0.1
1 0.575 0.1
1 0.6 0.1
1 0.625 0.1
1 0.65 0.1
1 0.675 0.1
1 0.7 0.1
1 0.725 0.1
1 0.75 0.1
1 0.775 0.1
1 0.5125 0.1
1 0.5375 0.1
1 0.5625 0.1
1 0.5875 0.1
1 0.6125 0.1
1 0.6375 0.1
1 0.6625 0.1
1 0.6875 0.1
1 0.7125 0.1
1 0.7375 0.1
1 0.7625 0.1
1 0.7875 0.1
0.025 0.8 0.1
0.05 0.8 0.1
0.075 0.8 0.1
0.1 0.8 0.1
0.125 0.8 0.1
0.15 0.8 0.1
0.175 0.8 0.1
0.0125 0.8 0.1
0.0375 0.8 0.1
0.0625 0.8 0.1
0.0875 0.8 0.1
0.1125 0.8 0.1
0.1375 0.8 0.1
0.1625 0.8 0.1
0.1875 0.8 0.1
0.225 0.8 0.1
0.25 0.8 0.1
0.275 0.8 0.1
0.3 0.8 0.1
0.325 0.8 0.1
0.35 0.8 0.1
0.375 0.8 0.1
0.4 0.8 0.1
0.425 0.8 0.1
0.45 0.8 0.1
0.475 0.8 0.1
0.2125 0.8 0.1
0.2375 0.8 0.1
0.2625 0.8 0.1
0.2875 0.8 0.1
0.3125 0.8 0.1
0.3375 0.8 0.1
0.3625 0.8 0.1
0.3875 0.8 0.1
0.4125 0.8 0.1
0.4375 0.8 0.1
0.4625 0.8 0.1
0.4875 0.8 0.1
0.525 0.8 0.1
0.55 0.8 0.1
0.575 0.8 0.1
0.6 0.8 0.1
0.625 0.8 0.1
0.65 0.8 0.1
0.675 0.8 0.1
0.7 0.8 0.1
0.725 0.8 0.1
0.75 0.8 0.1
0.775 0.8 0.1
0.5125 0.8 0.1
0.5375 0.8 0.1
0.5625 0.8 0.1
0.5875 0.8 0.1
0.6125 0.8 0.1
0.6375 0.8 0.1
0.6625 0.8 0.1
0.6875 0.8 0.1
0.7125 0.8 0.1
0.7375 0.8 0.1
0.7625 0.8 0.1
0.7875 0.8 0.1
0.825 0.8 0.1
0.85 0.8 0.1
0.875 0.8 0.1
0.9 0.8 0.1
0.925 0.8 0.1
0.95 0.8 0.1
0.975 0.8 0.1
0.8125 0.8 0.1
0.8375 0.8 0.1
0.8625 0.8 0.1
0.8875 0.8 0.1
0.9125 0.8 0.1
0.9375 0.8 0.1
0.9625 0.8 0.1
0.9875 0.8 0.1
0 0.825 0.1
0 0.85 0.1
0 0.875 0.1
0 0.9 0.1
0 0.925 0.1
0 0.95 0.1
0 0.975 0.1
0 0.8125 0.1
0 0.8375 0.1
0 0.8625 0.1
0 0.8875 0.1
0 0.9125 0.1
0 0.9375 0.1
0 0.9625 0.1
0 0.9875 0.1
0.2 0.825 0.1
0.2 0.85 0.1
0.2 0.875 0.1
0.2 0.9 0.1
0.2 0.925 0.1
0.2 0.95 0.1
0.2 0.975 0.1
0.2 0.8125 0.1
0.2 0.8375 0.1
0.2 0.8625 0.1
0.2 0.8875 0.1
0.2 0.9125 0.1
0.2 0.9375 0.1
0.2 0.9625 0.1
0.2 0.9875 0.1
0.5 0.825 0.1
0.5 0.85 0.1
0.5 0.875 0.1
0.5 0.9 0.1
0.5 0.925 0.1
0.5 0.95 0.1
0.5 0.975 0.1
0.5 0.8125 0.1
0.5 0.8375 0.1
0.5 0.8625 0.1
0.5 0.8875 0.1
0.5 0.9125 0.1
0.5 0.9375 0.1
0.5 0.9625 0.1
0.5 0.9875 0.1
0.8 0.825 0.1
0.8 0.85 0.1
0.8 0.875 0.1
0.8 0.9 0.1
0.8 0.925 0.1
0.8 0.95 0.1
0.8 0.975 0.1
0.8 0.8125 0.1
0.8 0.8375 0.1
0.8 0.8625 0.1
0.8 0.8875 0.1
0.8 0.9125 0.1
0.8 0.9375 0.1
0.8 0.9625 0.1
0.8 0.9875 0.1
1 0.825 0.1
1 0.85 0.1
1 0.875 0.1
1 0.9 0.1
1 0.925 0.1
1 0.95 0.1
1 0.975 0.1
1 0.8125 0.1
1 0.8375 0.1
1 0.8625 0.1
1 0.8875 0.1
1 0.9125 0.1
1 0.9375 0.1
1 0.9625 0.1
1 0.9875 0.1
0.025 1 0.1
0.05 1 0.1
0.075 1 0.1
0.1 1 0.1
0.125 1 0.1
0.15 1 0.1
0.175 1 0.1
0.0125 1 0.1
0.0375 1 0.1
0.0625 1 0.1
0.0875 1 0.1
0.1125 1 0.1
0.1375 1 0.1
0.1625 1 0.1
0.1875 1 0.1
0.225 1 0.1
0.25 1 0.1
0.275 1 0.1
0.3 1 0.1
0.325 1 0.1
0.35 1 0.1
0.375 1 0.1
0.4 1 0.1
0.425 1 0.1
0.45 1 0.1
0.475 1 0.1
0.2125 1 0.1
0.2375 1 0.1
0.2625 1 0.1
0.2875 1 0.1
0.3125 1 0.1
0.3375 1 0.1
0.3625 1 0.1
0.3875 1 0.1
0.4125 1 0.1
0.4375 1 0.1
0.4625 1 0.1
0.4875 1 0.1
0.525 1 0.1
0.55 1 0.1
0.575 1 0.1
0.6 1 0.1
0.625 1 0.1
0.65 1 0.1
0.675 1 0.1
0.7 1 0.1
0.725 1 0.1
0.75 1 0.1
0.775 1 0.1
0.5125 1 0.1
0.5375 1 0.1
0.5625 1 0.1
0.5875 1 0.1
0.6125 1 0.1
0.6375 1 0.1
0.6625 1 0.1
0.6875 1 0.1
0.7125 1 0.1
0.7375 1 0.1
0.7625 1 0.1
0.7875 1 0.1
0.825 1 0.1
0.85 1 0.1
0.875 1 0.1
0.9 1 0.1
0.925 1 0.1
0.95 1 0.1
0.975 1 0.1
0.8125 1 0.1
0.8375 1 0.1
0.8625 1 0.1
0.8875 1 0.1
0.9125 1 0.1
0.9375 1 0.1
0.9625 1 0.1
0.9875 1 0.1
0.025 0.025 0.1
0.025 0.05 0.1
0.025 0.075 0.1
0.025 0.1 0.1
0.025 0.125 0.1
0.025 0.15 0.1
0.025 0.175 0.1
0.05 0.025 0.1
0.05 0.05 0.1
0.05 0.075 0.1
0.05 0.1 0.1
0.05 0.125 0.1
0.05 0.15 0.1
0.05 0.175 0.1
0.075 0.025 0.1
0.075 0.05 0.1
0.075 0.075 0.1
0.075 0.1 0.1
0.075 0.125 0.1
0.075 0.15 0.1
0.075 0.175 0.1
0.1 0.025 0.1
0.1 0.05 0.1
0.1 0.075 0.1
0.1 0.1 0.1
0.1 0.125 0.1
0.1 0.15 0.1
0.1 0.175 0.1
0.125 0.025 0.1
0.125 0.05 0.1
0.125 0.075 0.1
0.125 0.1 0.1
0.125 0.125 0.1
0.125 0.15 0.1
0.125 0.175 0.1
0.15 0.025 0.1
0.15 0.05 0.1
0.15 0.075 0.1
0.15 0.1 0.1
0.15 0.125 0.1
0.15 0.15 0.1
0.15 0.175 0.1
[...]
    <PointData>
      <DataArray type="Float64" NumberOfComponents="3" Name="Velocity" format="ascii">
0 0 0
0 0 0
0 0 0
0 0 0
0 0 0
0 0 0
-0.0450162 -0.0172546 0
-0.0351041 -0.000118614 0
-0.0522295 0.00582279 0
0 0 0
0 0 0
-0.0280781 0.0625764 0
-0.0272421 -0.0621046 0
0 0 0
0 0 0
-0.144707 0.175212 0
-0.0697254 0.00320796 0
-0.151427 -0.182221 0
0 0 0
0 0 0
1 0 0
1 0 0
1 0 0
0 0 0
0 0 0
0 0 0
0 0 0
0 0 0
0 0 0
0 0 0
0 0 0
0 0 0
0 0 0
0 0 0
0 0 0
0 0 0
0 0 0
0 0 0
0 0 0
0 0 0
0 0 0
0 0 0
0 0 0
0 0 0
0 0 0
0 0 0
0 0 0
0 0 0
0 0 0
0 0 0
0 0 0
0 0 0
0 0 0
0 0 0
0 0 0
0 0 0
0 0 0
0 0 0
0 0 0
0 0 0
0 0 0
0 0 0
0 0 0
0 0 0
0 0 0
0 0 0
0 0 0
0 0 0
0 0 0
0 0 0
0 0 0
0 0 0
0 0 0
0 0 0
0 0 0
0 0 0
0 0 0
0 0 0
0 0 0
0 0 0
0 0 0
0 0 0
0 0 0
0 0 0
0 0 0
0 0 0
0 0 0
0 0 0
0 0 0
0 0 0
0 0 0
0 0 0
0 0 0
0 0 0
0 0 0
0 0 0
0 0 0
0 0 0
0 0 0
0 0 0
0 0 0
0 0 0
0 0 0
0 0 0
0 0 0
0 0 0
0 0 0
0 0 0
0 0 0
0 0 0
0 0 0
0 0 0
0 0 0
0 0 0
0 0 0
0.00361255 -0.000441734 0
0.00581232 -0.00132417 0
0.00792028 -0.00302735 0
0.00917817 -0.0083668 0
-0.00355536 -0.017571 0
0.00184609 -0.00939097 0
-0.0103951 -0.0112657 0
0.000866656 -0.000206005 0
0.00472157 -0.000844633 0
0.00661216 -0.00211571 0
0.00844823 -0.00505791 0
0.00135889 -0.0148965 0
0.00225716 -0.0127951 0
-0.00298767 -0.00900924 0
-0.0147756 -0.0155658 0
0.00120339 -3.39944e-05 0
0.00132274 -4.2219e-05 0
0.000379118 -1.20753e-05 0
-0.00176718 1.87426e-05 0
-0.00781431 4.92427e-05 0
-0.0194895 0.000195151 0
-0.0295694 0.000292117 0
-0.000454185 -3.56455e-05 0
0.00137895 -5.36714e-05 0
0.000995452 -2.42247e-05 0
-0.000549261 6.88387e-06 0
-0.00390622 6.01896e-06 0
-0.0133841 0.000134321 0
-0.0251088 0.000240646 0
-0.0326059 0.000196921 0
0.00362302 0.000252045 0
0.00567488 0.000845022 0
0.00713329 0.00183183 0
0.00684958 0.00173939 0
0.000517596 0.00639419 0
-0.000791686 0.00944078 0
-0.00663523 0.0128388 0
0.00087024 6.85616e-05 0
0.00474734 0.000469182 0
0.00641127 0.00122155 0
0.00746037 0.00185067 0
0.00198353 0.00275589 0
0.000831936 0.0083167 0
-0.00417881 0.0108021 0
-0.0187698 0.015698 0
0 0 0
0 0 0
0 0 0
0 0 0
0 0 0
0 0 0
0 0 0
0 0 0
0 0 0
0 0 0
0 0 0
0 0 0
0 0 0
0 0 0
0 0 0
-0.00152004 0.00352573 0
-0.00447051 0.00655659 0
-0.0089324 0.0099967 0
-0.017382 0.0122613 0
-0.0308571 0.00128882 0
-0.0285721 0.0223545 0
-0.0373205 0.0223417 0
-0.000480348 0.00187412 0
-0.00285535 0.00497987 0
-0.00659561 0.00791493 0
-0.0125693 0.0110518 0
-0.0259697 0.00419458 0
-0.0285473 0.0143412 0
-0.0313097 0.0254666 0
-0.043413 0.0163004 0
0.00151382 0.0113309 0
-0.00281815 0.0159779 0
-0.0130266 0.015216 0
-0.0233399 0.0170864 0
-0.0278939 0.0129825 0
-0.0286048 0.0110358 0
-0.0294736 0.0100556 0
-0.0314135 0.0084722 0
-0.0335055 0.00621831 0
-0.0347635 0.0039084 0
-0.035107 0.00184667 0
-0.00489511 -0.00616832 0
-0.00153306 0.0124812 0
-0.00661848 0.0169354 0
-0.0191391 0.0146724 0
-0.0260651 0.0152636 0
-0.0282438 0.012673 0
-0.0286717 0.0115696 0
-0.0301431 0.010047 0
-0.0323389 0.00784681 0
-0.0340054 0.00570625 0
-0.0347174 0.00375345 0
-0.0348229 0.00177276 0
-0.0351489 -0.00203627 0
-0.0349124 -0.00400882 0
-0.0338788 -0.00621749 0
-0.0320318 -0.00862468 0
-0.0302552 -0.0106101 0
-0.0293569 -0.0119588 0
-0.028614 -0.0135759 0
-0.0247919 -0.0160508 0
-0.0162483 -0.0170888 0
-0.0084918 -0.0151111 0
0.00276085 -0.0158811 0
-0.0348565 -0.000266724 0
-0.0348269 -0.00225801 0
-0.0342696 -0.00449024 0
-0.0328535 -0.00690925 0
-0.0309464 -0.0092605 0
-0.0295298 -0.0107792 0
-0.0288573 -0.0121494 0
-0.0270103 -0.0145138 0
-0.0209817 -0.0164816 0
-0.0116717 -0.0157602 0
-0.00440515 -0.0155172 0
-0.000963802 0.0178962 0
-0.0434049 -0.0243078 0
-0.0281427 -0.0189365 0
-0.0160206 -0.0070217 0
-0.00679848 -0.0100162 0
-0.00557189 -0.00809605 0
-0.00273258 -0.00527238 0
-0.000889733 -0.00279757 0
-0.0531454 -0.0181829 0
-0.03536 -0.021423 0
-0.0221877 -0.0133679 0
-0.00888566 -0.00561499 0
-0.00633676 -0.00944618 0
-0.00396391 -0.00657195 0
-0.00163906 -0.0040388 0
-0.000197825 -0.00147539 0
0 0 0
0 0 0
0 0 0
0 0 0
0 0 0
0 0 0
0 0 0
0 0 0
0 0 0
0 0 0
0 0 0
0 0 0
0 0 0
0 0 0
0 0 0
0 0 0
0 0 0
0 0 0
0 0 0
0 0 0
0 0 0
0 0 0
0 0 0
-0.0218856 0.0519181 0
-0.018021 0.0437614 0
-0.0133153 0.0419885 0
-0.0122331 0.0377459 0
-0.0126556 0.037762 0
-0.0137161 0.0413995 0
-0.0146622 0.0446732 0
-0.016212 0.0471935 0
-0.018539 0.0499935 0
-0.0213183 0.0536047 0
-0.0244635 0.0578532 0
-0.0450523 0.0349223 0
-0.0191913 0.0454846 0
-0.0155567 0.0442136 0
-0.0128057 0.0394103 0
-0.0123585 0.0372158 0
-0.0131545 0.0393148 0
-0.0141002 0.0431445 0
-0.0153117 0.0459953 0
-0.0173244 0.0485345 0
-0.0199084 0.0517022 0
-0.0228758 0.0556327 0
-0.026242 0.0601322 0
-0.0158429 -0.0418691 0
-0.0173339 -0.0411336 0
-0.0127769 -0.0382855 0
-0.0112951 -0.0340801 0
-0.0108061 -0.0354018 0
-0.0119295 -0.0395296 0
-0.0128052 -0.043374 0
-0.0144618 -0.0462105 0
-0.016978 -0.0490503 0
-0.019951 -0.0527035 0
-0.0233107 -0.0571339 0
-0.0433926 -0.0329376 0
-0.0183048 -0.0413768 0
-0.0152275 -0.0405129 0
-0.0114922 -0.0354726 0
-0.0107166 -0.0343157 0
-0.0115548 -0.0373725 0
-0.0123488 -0.0415864 0
-0.0135831 -0.044875 0
-0.0157396 -0.0475852 0
-0.0185002 -0.0507988 0
-0.0216481 -0.0548594 0
-0.0252688 -0.0595833 0
0 0 0
0 0 0
0 0 0
0 0 0
0 0 0
0 0 0
0 0 0
0 0 0
0 0 0
0 0 0
0 0 0
0 0 0
0 0 0
0 0 0
0 0 0
0 0 0
0 0 0
0 0 0
0 0 0
0 0 0
0 0 0
0 0 0
0 0 0
-0.00144069 0.0214107 0
-0.00441539 0.0370993 0
-0.00835824 0.048276 0
-0.0125553 0.0557978 0
-0.0181964 0.0609599 0
-0.0264386 0.063569 0
-0.0305514 0.0640529 0
-0.000382178 0.0115109 0
-0.0027697 0.0298866 0
-0.00630179 0.0431851 0
-0.0107292 0.0524363 0
-0.0145078 0.0586736 0
-0.0225866 0.0625505 0
-0.0291922 0.064071 0
-0.0302401 0.0635548 0
-0.0314194 -0.0637633 0
-0.0289111 -0.0633554 0
-0.0195055 -0.0608179 0
-0.0117514 -0.0558549 0
-0.00809022 -0.0482309 0
-0.00424777 -0.0370237 0
-0.00137091 -0.0213037 0
-0.0302982 -0.0631886 0
-0.0309243 -0.0638195 0
-0.025015 -0.0623459 0
-0.0141425 -0.0586381 0
-0.0103358 -0.0524529 0
-0.00609933 -0.0431428 0
-0.00264019 -0.029794 0
-0.000339083 -0.0114325 0
0 0 0
0 0 0
0 0 0
0 0 0
0 0 0
0 0 0
0 0 0
0 0 0
0 0 0
0 0 0
0 0 0
0 0 0
0 0 0
0 0 0
0 0 0
0 0 0
0 0 0
0 0 0
0 0 0
0 0 0
0 0 0
0 0 0
0 0 0
-0.0322453 0.0677575 0
-0.0369568 0.0733533 0
-0.0423122 0.0790773 0
-0.0483699 0.0848029 0
-0.0553399 0.0910221 0
-0.0632008 0.0984859 0
-0.0714958 0.106914 0
-0.0803988 0.112099 0
-0.0910887 0.111579 0
-0.103494 0.112563 0
-0.111561 0.101486 0
-0.0301471 0.0650797 0
-0.0345862 0.0704894 0
-0.0396098 0.0761754 0
-0.0453028 0.0818935 0
-0.0518124 0.0877576 0
-0.059261 0.0945363 0
-0.0673541 0.10264 0
-0.0756527 0.110046 0
-0.0853179 0.112469 0
-0.0979987 0.111344 0
-0.107126 0.109352 0
-0.146421 0.116037 0
-0.0318435 -0.0675466 0
-0.0370581 -0.0733451 0
-0.0429229 -0.0791434 0
-0.0495532 -0.0848174 0
-0.0575041 -0.0911603 0
-0.0669104 -0.0992403 0
-0.0767608 -0.108085 0
-0.0867066 -0.112798 0
-0.0979046 -0.111149 0
-0.109941 -0.10802 0
-0.122383 -0.10024 0
-0.029547 -0.0647953 0
-0.0344761 -0.070449 0
-0.0400336 -0.076273 0
-0.0462702 -0.0819768 0
-0.0534752 -0.0878735 0
-0.0622191 -0.0950721 0
-0.0720498 -0.10394 0
-0.0821226 -0.111289 0
-0.0922905 -0.112452 0
-0.103879 -0.108972 0
-0.115316 -0.103881 0
-0.148422 -0.123554 0
0 0 0
0 0 0
0 0 0
0 0 0
0 0 0
0 0 0
0 0 0
0 0 0
0 0 0
0 0 0
0 0 0
0 0 0
0 0 0
0 0 0
0 0 0
0 0 0
0 0 0
0 0 0
0 0 0
0 0 0
0 0 0
0 0 0
0 0 0
-0.0129143 0.0984679 0
-0.0357252 0.159828 0
-0.0612452 0.190048 0
-0.0835049 0.198183 0
-0.108075 0.196714 0
-0.126371 0.172558 0
-0.142031 0.148442 0
-0.00470385 0.054253 0
-0.0235544 0.133566 0
-0.0484099 0.178511 0
-0.0727559 0.196185 0
-0.0945755 0.20152 0
-0.118107 0.184488 0
-0.134093 0.161708 0
-0.151758 0.147801 0
-0.0752183 0.119818 0
-0.0853754 0.108213 0
-0.0872552 0.0869561 0
-0.0898457 0.0710281 0
-0.0873077 0.0590853 0
-0.0816272 0.0477096 0
-0.0772007 0.0375835 0
-0.0748252 0.0293678 0
-0.0733912 0.0223265 0
-0.071692 0.0156083 0
-0.0703558 0.00951565 0
-0.0816455 0.172896 0
-0.0829159 0.113336 0
-0.0858338 0.096698 0
-0.0891286 0.0780469 0
-0.0890483 0.0648427 0
-0.0844105 0.0533713 0
-0.0790133 0.0428869 0
-0.0755843 0.0340219 0
-0.0737438 0.026645 0
-0.0721242 0.0198866 0
-0.070487 0.0136017 0
-0.0694819 0.00761068 0
-0.0697602 -0.00324466 0
-0.0707357 -0.00926212 0
-0.0719604 -0.0157626 0
-0.0730773 -0.0230275 0
-0.0750349 -0.0312413 0
-0.0791561 -0.040704 0
-0.0853513 -0.0510767 0
-0.0884351 -0.0635931 0
-0.0844186 -0.0780348 0
-0.0828743 -0.10007 0
-0.0819447 -0.124914 0
-0.0691651 0.00114382 0
-0.0697138 -0.00507125 0
-0.0708533 -0.0113011 0
-0.0719688 -0.0181561 0
-0.0734294 -0.0258822 0
-0.0765005 -0.0348226 0
-0.0821089 -0.0449464 0
-0.0871684 -0.0563458 0
-0.0867758 -0.0701764 0
-0.0820081 -0.0882101 0
-0.0839724 -0.112013 0
-0.09607 -0.158521 0
-0.145555 -0.162208 0
-0.135168 -0.179565 0
-0.131552 -0.219067 0
-0.0963709 -0.21151 0
-0.0650954 -0.205174 0
-0.0370422 -0.173002 0
-0.0129975 -0.10623 0
-0.151334 -0.15714 0
-0.139173 -0.167684 0
-0.133324 -0.196871 0
-0.11718 -0.219882 0
-0.0802735 -0.211319 0
-0.0510006 -0.193309 0
-0.0240998 -0.144465 0
-0.00442076 -0.0584238 0
0 0 0
0 0 0
0 0 0
0 0 0
0 0 0
0 0 0
0 0 0
0 0 0
0 0 0
0 0 0
0 0 0
0 0 0
0 0 0
0 0 0
0 0 0
-0.0883673 0.170715 0
-0.0586539 0.155527 0
-0.0165315 0.133833 0
0.0654214 0.10091 0
0.184161 0.0692489 0
0.366497 0.0375485 0
0.632051 0.012078 0
-0.106225 0.180597 0
-0.076149 0.162911 0
-0.040092 0.14605 0
0.0180306 0.117081 0
0.118036 0.085104 0
0.265979 0.0529774 0
0.48757 0.0235948 0
0.801957 0.00405343 0
-0.032534 0.00332224 0
0.0209211 0.00287725 0
0.0915958 0.00238969 0
0.185786 0.00176662 0
0.307728 0.00108009 0
0.47297 0.000544942 0
0.696879 0.000162296 0
-0.0524715 0.00341862 0
-0.00802181 0.00307746 0
0.0543453 0.00271017 0
0.135114 0.00206535 0
0.242213 0.00139866 0
0.384069 0.000800373 0
0.576441 0.000330029 0
0.83699 5.25574e-05 0
-0.0986062 -0.168484 0
-0.0599924 -0.151445 0
-0.019861 -0.140279 0
0.0732144 -0.104894 0
0.195453 -0.06714 0
0.377966 -0.0355295 0
0.639376 -0.0113641 0
-0.110404 -0.17726 0
-0.0805041 -0.159735 0
-0.0381853 -0.145262 0
0.0191828 -0.125909 0
0.127753 -0.0853178 0
0.277747 -0.0507451 0
0.497472 -0.0221689 0
0.805617 -0.00371526 0
0 0 0
0 0 0
0 0 0
0 0 0
0 0 0
0 0 0
0 0 0
0 0 0
0 0 0
0 0 0
0 0 0
0 0 0
0 0 0
0 0 0
0 0 0
1 0 0
1 0 0
1 0 0
1 0 0
1 0 0
1 0 0
1 0 0
1 0 0
1 0 0
1 0 0
1 0 0
1 0 0
1 0 0
1 0 0
1 0 0
1 0 0
1 0 0
1 0 0
1 0 0
1 0 0
1 0 0
1 0 0
1 0 0
1 0 0
1 0 0
1 0 0
1 0 0
1 0 0
1 0 0
1 0 0
1 0 0
1 0 0
1 0 0
1 0 0
1 0 0
1 0 0
1 0 0
1 0 0
1 0 0
1 0 0
1 0 0
1 0 0
1 0 0
1 0 0
1 0 0
1 0 0
1 0 0
1 0 0
1 0 0
1 0 0
1 0 0
1 0 0
1 0 0
1 0 0
1 0 0
1 0 0
1 0 0
1 0 0
1 0 0
1 0 0
1 0 0
1 0 0
1 0 0
1 0 0
1 0 0
1 0 0
1 0 0
1 0 0
1 0 0
1 0 0
1 0 0
1 0 0
1 0 0
1 0 0
1 0 0
1 0 0
0.000718794 0.000554598 0
0.00053569 0.000152506 0
0.000226583 -0.000420204 0
-9.34098e-05 -0.000820221 0
-0.000660821 -0.0007835 0
-0.00143116 1.65361e-05 0
-0.00180979 0.0016037 0
0.000792274 4.0085e-05 0
0.000831328 -0.000282447 0
0.000506841 -0.000840048 0
-0.000189789 -0.00138652 0
-0.00165733 -0.00155404 0
-0.00412714 -0.000471539 0
-0.00563546 0.00237817 0
0.000809535 -0.00017671 0
0.000961458 -0.000600623 0
0.000676925 -0.00116757 0
-0.000188683 -0.00183775 0
-0.00224512 -0.00274707 0
-0.00740982 -0.00260033 0
-0.0135083 0.00114479 0
0.000844003 -0.000377971 0
0.00095512 -0.000960358 0
0.000514339 -0.00153226 0
-0.000539912 -0.00216803 0
-0.00319356 -0.0032957 0
-0.00773797 -0.00625566 0
-0.0291268 -0.00561012 0
0.000957682 -0.000666024 0
0.000916388 -0.00170288 0
-0.00022715 -0.00258878 0
-0.00184276 -0.00361293 0
-0.00609176 -0.00538189 0
-0.00308499 0.00336515 0
-0.0247896 7.07111e-06 0
0.00156265 -0.000942434 0
0.00164911 -0.00300475 0
-0.000325491 -0.005674 0
-0.00461815 -0.00621674 0
0.002023 -0.00206713 0
-0.00790959 -0.00560937 0
-0.0119323 0.0141538 0
0.00265482 -0.000877628 0
0.00353273 -0.00329637 0
0.00224776 -0.00884324 0
-0.00423195 -0.0211661 0
-0.00149178 -0.0178528 0
0.00280291 -0.00297442 0
-0.019602 -0.000489428 0
-0.000319693 0.000300335 0
9.42014e-06 0.000523703 0
0.000500882 0.000625504 0
0.000658321 0.000389544 0
0.000456718 0.000433394 0
0.000369211 0.000232313 0
0.000359253 -0.000137238 0
0.000269866 -1.02964e-05 0
0.000167023 -0.00021536 0
5.76775e-05 -0.000660798 0
9.65219e-05 -0.000386631 0
4.63278e-05 -0.000481586 0
-0.000359949 -0.000886127 0
-3.16724e-05 -0.00052697 0
-0.000142312 -0.000451701 0
-0.00103513 -0.00051061 0
-0.000280095 -0.000286349 0
-0.000446792 3.27954e-05 0
-0.0016848 0.000747821 0
-0.000553217 0.000424556 0
-0.000586333 0.000913017 0
-0.00181831 0.00261366 0
-0.000578131 0.00141313 0
-0.000637093 -5.75378e-06 0
-0.000492443 0.000109534 0
0.00076141 0.000187941 0
0.000868696 -8.79809e-05 0
0.000831416 0.000129951 0
0.000731431 -7.38468e-05 0
0.000715243 -0.000536707 0
0.000569286 -0.000332879 0
0.000375779 -0.00063435 0
0.000215131 -0.0011309 0
0.000133258 -0.000903302 0
-0.000159538 -0.00111768 0
-0.00081119 -0.00154479 0
-0.000599393 -0.001214 0
-0.00116491 -0.00115152 0
-0.00282399 -0.00126246 0
-0.00187082 -0.000806471 0
-0.00264464 -0.000114452 0
-0.00501798 0.000723878 0
-0.00315185 0.000914831 0
-0.00338615 0.00225264 0
-0.0056631 0.00466008 0
-0.00341696 0.00373149 0
-0.000690621 -9.04624e-05 0
-0.000675698 -5.66772e-05 0
0.00074239 -0.000130694 0
0.000936973 -0.000372945 0
0.000910215 -0.000237688 0
0.000910417 -0.000446584 0
0.000883115 -0.000864981 0
0.000815844 -0.000710645 0
0.000618856 -0.00100587 0
0.000349842 -0.00147941 0
0.000297487 -0.00131872 0
-0.000194381 -0.00162824 0
-0.000971407 -0.00227109 0
-0.00093903 -0.001923 0
-0.00201915 -0.0021287 0
-0.00454743 -0.0028733 0
-0.00373779 -0.00203998 0
-0.00578265 -0.00145441 0
-0.0106144 -0.00164854 0
-0.00755164 -2.3404e-05 0
-0.00871885 0.00259039 0
-0.0133498 0.00624803 0
-0.00872894 0.00566928 0
-0.000686599 -0.000179798 0
-0.000677294 -0.000126348 0
0.000783197 -0.0003083 0
0.000958 -0.000668309 0
0.000965179 -0.00050174 0
0.000980851 -0.000757967 0
0.000794634 -0.00125903 0
0.000883059 -0.00102849 0
0.000664918 -0.00131423 0
5.91428e-05 -0.00182385 0
0.000306179 -0.00162196 0
-0.000259551 -0.00200798 0
-0.00154033 -0.00271183 0
-0.00112906 -0.00247293 0
-0.00250211 -0.0029466 0
-0.00482286 -0.00393869 0
-0.00483279 -0.00374409 0
-0.00829569 -0.00496013 0
-0.0182486 -0.00829031 0
-0.0143856 -0.00444202 0
-0.0200474 -0.000548119 0
-0.0326376 0.00222939 0
-0.0205207 0.00620522 0
-0.000623185 -0.000303813 0
-0.000675246 -0.000230691 0
0.00080893 -0.000541271 0
0.00104019 -0.0011658 0
0.00096781 -0.00087595 0
0.000908355 -0.00125972 0
0.000460481 -0.00218129 0
0.000626011 -0.00161031 0
0.000178844 -0.00189727 0
-0.000839671 -0.0029983 0
-0.000377151 -0.00221611 0
-0.00115545 -0.00258888 0
-0.00315231 -0.00434686 0
-0.00232241 -0.00307305 0
-0.00441133 -0.00349237 0
-0.0108233 -0.0041737 0
-0.00627825 -0.00282635 0
-0.00739182 -0.00535413 0
-0.00610444 0.00346368 0
-0.0171673 -0.00991975 0
-0.0337802 -0.011071 0
-0.0379035 -0.00144969 0
-0.0426459 -0.00649982 0
-0.000248476 -0.000340177 0
-0.000481444 -0.000328462 0
0.00113116 -0.000846676 0
0.00179551 -0.00186632 0
0.001306 -0.00150024 0
0.00111095 -0.00232007 0
0.000836188 -0.00430599 0
0.000470731 -0.00315793 0
-0.000410837 -0.00395706 0
-0.00271356 -0.00652509 0
-0.00158841 -0.00437296 0
-0.00255403 -0.0044151 0
-0.00491888 -0.00576722 0
-0.00274715 -0.00551784 0
-0.00529036 -0.00967497 0
-0.00292129 -0.00441792 0
-0.0134214 -0.0118114 0
-0.00517149 -0.000670053 0
-0.0011038 0.00599239 0
0.00429747 0.0133569 0
-0.011671 0.0161438 0
-0.0233816 0.0190449 0
-0.026971 0.0144856 0
0.000428719 -0.000265692 0
7.62744e-05 -0.000316025 0
0.00204449 -0.000985422 0
0.00338003 -0.0018607 0
0.0025129 -0.0019719 0
0.00246355 -0.0032778 0
0.00362583 -0.00535899 0
0.00181195 -0.00512587 0
0.000290987 -0.00747753 0
0.000491041 -0.0138159 0
-0.00241441 -0.0105595 0
-0.006353 -0.0140023 0
-0.00978542 -0.0254666 0
-0.00876235 -0.013228 0
0.00231623 -0.00360146 0
0.0102486 -0.0050547 0
0.00944396 0.00601155 0
-0.000404054 0.00381762 0
-0.0084675 -0.00338392 0
-0.0073146 0.00292158 0
-0.0169857 0.00798567 0
-0.0313719 0.00743608 0
-0.0268549 0.0159803 0
0.000743658 -0.000255104 0
0.00320596 -0.000796274 0
0.00423242 -0.00157248 0
0.00493593 -0.002785 0
0.00559854 -0.00457152 0
0.00581441 -0.00759063 0
0.00545899 -0.0127352 0
0.0017934 -0.0221734 0
-0.0064209 -0.0302837 0
-0.00416863 -0.0259377 0
0.00573392 -0.0147699 0
0.00294029 -0.00937051 0
-0.00662826 -0.00964376 0
-0.0180967 -0.0102384 0
-0.0337668 -0.00910228 0
0.00350807 0.000157208 0
0.00529139 0.000612174 0
0.00589688 0.00184531 0
0.00777624 0.0043085 0
0.00514049 0.00230989 0
0.00313087 -0.00148377 0
-0.000556928 -0.000266695 0
0.0030869 0.00021843 0
0.0045704 0.000384702 0
0.00500186 0.000126907 0
0.00626994 -0.00109757 0
0.00567174 -0.00174247 0
0.00130966 -0.000937942 0
-0.00287483 0.00505412 0
0.00301827 8.2715e-05 0
0.00464468 -3.19699e-05 0
0.00552815 -0.000496589 0
0.00590263 -0.00100858 0
0.00239614 -0.00103381 0
-0.00365832 -0.000211307 0
-0.00942196 0.00529851 0
0.00303274 0.000117855 0
0.00466536 0.000173407 0
0.00542292 0.000440434 0
0.00496365 0.00128519 0
-0.000245149 0.00147462 0
-0.00901413 0.00202703 0
-0.0165567 0.00759177 0
0.00281637 0.000112488 0
0.00425251 0.00055032 0
0.00462739 0.00133114 0
0.0037791 0.00271505 0
-0.00161705 0.00292957 0
-0.0124291 0.00305572 0
-0.0213623 0.00695456 0
0.00247224 0.000237399 0
0.00360356 0.000761478 0
0.00368278 0.00171075 0
0.00267997 0.00316421 0
-0.00281883 0.00412406 0
-0.0139866 0.00432355 0
-0.0233298 0.00690153 0
0.00203428 0.000218036 0
0.00286617 0.000765348 0
0.00260358 0.00165424 0
0.00128018 0.00309961 0
-0.00408183 0.00400864 0
-0.0151376 0.00447658 0
-0.0245851 0.00664749 0
0.0017156 0.000244351 0
0.00227848 0.000615142 0
0.00177259 0.00124301 0
0.000134966 0.00221369 0
-0.00547521 0.00310525 0
-0.0166453 0.00368857 0
-0.0261631 0.00551249 0
0.0015137 0.000165821 0
0.00187699 0.000439903 0
0.00119135 0.00090237 0
-0.000781829 0.00165559 0
-0.0067014 0.00230226 0
-0.0179757 0.00264667 0
-0.0276958 0.00403354 0
0.00136922 0.000121161 0
0.00159431 0.000283994 0
0.000767307 0.000634249 0
-0.00137077 0.0011731 0
-0.00741273 0.00149427 0
-0.0188577 0.00168352 0
-0.0287633 0.0026704 0
0.0012457 -8.92144e-07 0
0.00139828 0.000124647 0
0.000484055 0.000335813 0
-0.00166433 0.000627507 0
-0.00770599 0.000753546 0
-0.0193036 0.000905483 0
-0.0293332 0.00146693 0
0.000789553 3.03859e-05 0
0.0008731 -5.4043e-05 0
0.00359796 -8.04687e-05 0
0.00451784 0.000331875 0
0.0047645 -3.06665e-05 0
0.00572939 7.08928e-05 0
0.00568993 0.00113461 0
0.00642476 0.000340375 0
0.00721216 0.000905325 0
0.00637 0.00283603 0
0.00799648 0.00178523 0
0.00982976 0.00322017 0
0.00857158 0.00482945 0
0.00758165 0.00293715 0
0.00213277 -0.000916422 0
0.00381156 -0.000488366 0
0.00207866 -0.00395461 0
0.0019628 -0.0044534 0
0.000932447 -0.00149748 0
-0.000491161 -0.00454978 0
-0.00366704 -0.00515837 0
-0.00153648 0.00359287 0
-0.001775 -0.00486178 0
0.000566498 7.81449e-05 0
0.000678288 7.86669e-05 0
0.00323541 0.000218376 0
0.00402524 0.000319138 0
0.00423227 0.000433175 0
0.00484509 0.000660666 0
0.00493185 0.00034925 0
0.00512767 0.000870054 0
0.00514524 0.00102704 0
0.00536657 -0.000573137 0
0.00542969 0.00103446 0
0.00670722 0.00133663 0
0.00683778 -0.00126196 0
0.00791129 0.00152829 0
0.0062599 0.000515994 0
0.0034416 -0.00178895 0
0.00423303 -0.00104353 0
0.00267226 -0.00118629 0
-0.000857912 0.00122065 0
0.000785706 0.000513274 0
-0.000744102 0.00367988 0
-0.00383051 0.0103716 0
-0.0020733 0.00772132 0
0.000539819 3.66882e-05 0
0.000542656 0.000100362 0
0.00297837 0.000118542 0
0.00396679 4.21172e-05 0
0.00396354 0.000139114 0
0.00457208 6.46806e-05 0
0.00514099 -0.000223654 0
0.00500507 -0.000143646 0
0.00524964 -0.000555218 0
0.00572745 -0.000952525 0
0.00560308 -0.00118843 0
0.00611853 -0.00155291 0
0.00485538 -0.000842243 0
0.00581409 -0.00167625 0
0.0040463 -0.00192128 0
-0.000659334 -0.00111904 0
0.00153407 -0.00177385 0
-0.000865875 -0.000646462 0