<?xml version="1.0"?>
<VTKFile type="UnstructuredGrid">
  <UnstructuredGrid>
  <Piece NumberOfPoints="4352"  NumberOfCells="2048">
    <Points>
      <DataArray type="Float64" NumberOfComponents="3" format="ascii">
0 0 0.1
0.2 0 0.1
0.5 0 0.1
0.8 0 0.1
1 0 0.1
0 0.2 0.1
0.2 0.2 0.1
0.5 0.2 0.1
0.8 0.2 0.1
1 0.2 0.1
0 0.5 0.1
0.2 0.5 0.1
0.8 0.5 0.1
1 0.5 0.1
0 0.8 0.1
0.2 0.8 0.1
0.5 0.8 0.1
0.8 0.8 0.1
1 0.8 0.1
0 1 0.1
0.2 1 0.1
0.5 1 0.1
0.8 1 0.1
1 1 0.1
0.025 0 0.1
0.05 0 0.1
0.075 0 0.1
0.1 0 0.1
0.125 0 0.1
0.15 0 0.1
0.175 0 0.1
0.0125 0 0.1
0.0375 0 0.1
0.0625 0 0.1
0.0875 0 0.1
0.1125 0 0.1
0.1375 0 0.1
0.1625 0 0.1
0.1875 0 0.1
0.225 0 0.1
0.25 0 0.1
0.275 0 0.1
0.3 0 0.1
0.325 0 0.1
0.35 0 0.1
0.375 0 0.1
0.4 0 0.1
0.425 0 0.1
0.45 0 0.1
0.475 0 0.1
0.2125 0 0.1
0.2375 0 0.1
0.2625 0 0.1
0.2875 0 0.1
0.3125 0 0.1
0.3375 0 0.1
0.3625 0 0.1
0.3875 0 0.1
0.4125 0 0.1
0.4375 0 0.1
0.4625 0 0.1
0.4875 0 0.1
0.525 0 0.1
0.55 0 0.1
0.575 0 0.1
0.6 0 0.1
0.625 0 0.1
0.65 0 0.1
0.675 0 0.1
0.7 0 0.1
0.725 0 0.1
0.75 0 0.1
0.775 0 0.1
0.5125 0 0.1
0.5375 0 0.1
0.5625 0 0.1
0.5875 0 0.1
0.6125 0 0.1
0.6375 0 0.1
0.6625 0 0.1
0.6875 0 0.1
0.7125 0 0.1
0.7375 0 0.1
0.7625 0 0.1
0.7875 0 0.1
0.825 0 0.1
0.85 0 0.1
0.875 0 0.1
0.9 0 0.1
0.925 0 0.1
0.95 0 0.1
0.975 0 0.1
0.8125 0 0.1
0.8375 0 0.1
0.8625 0 0.1
0.8875 0 0.1
0.9125 0 0.1
0.9375 0 0.1
0.9625 0 0.1
0.9875 0 0.1
0 0.025 0.1
0 0.05 0.1
0 0.075 0.1
0 0.1 0.1
0 0.125 0.1
0 0.15 0.1
0 0.175 0.1
0 0.0125 0.1
0 0.0375 0.1
0 0.0625 0.1
0 0.0875 0.1
0 0.1125 0.1
0 0.1375 0.1
0 0.1625 0.1
0 0.1875 0.1
0.2 0.025 0.1
0.2 0.05 0.1
0.2 0.075 0.1
0.2 0.1 0.1
0.2 0.125 0.1
0.2 0.15 0.1
0.2 0.175 0.1
0.2 0.0125 0.1
0.2 0.0375 0.1
0.2 0.0625 0.1
0.2 0.0875 0.1
0.2 0.1125 0.1
0.2 0.1375 0.1
0.2 0.1625 0.1
0.2 0.1875 0.1
0.5 0.025 0.1
0.5 0.05 0.1
0.5 0.075 0.1
0.5 0.1 0.1
0.5 0.125 0.1
0.5 0.15 0.1
0.5 0.175 0.1
0.5 0.0125 0.1
0.5 0.0375 0.1
0.5 0.0625 0.1
0.5 0.0875 0.1
0.5 0.1125 0.1
0.5 0.1375 0.1
0.5 0.1625 0.1
0.5 0.1875 0.1
0.8 0.025 0.1
0.8 0.05 0.1
0.8 0.075 0.1
0.8 0.1 0.1
0.8 0.125 0.1
0.8 0.15 0.1
0.8 0.175 0.1
0.8 0.0125 0.1
0.8 0.0375 0.1
0.8 0.0625 0.1
0.8 0.0875 0.1
0.8 0.1125 0.1
0.8 0.1375 0.1
0.8 0.1625 0.1
0.8 0.1875 0.1
1 0.025 0.1
1 0.05 0.1
1 0.075 0.1
1 0.1 0.1
1 0.125 0.1
1 0.15 0.1
1 0.175 0.1
1 0.0125 0.1
1 0.0375 0.1
1 0.0625 0.1
1 0.0875 0.1
1 0.1125 0.1
1 0.1375 0.1
1 0.1625 0.1
1 0.1875 0.1
0.025 0.2 0.1
0.05 0.2 0.1
0.075 0.2 0.1
0.1 0.2 0.1
0.125 0.2 0.1
0.15 0.2 0.1
0.175 0.2 0.1
0.0125 0.2 0.1
0.0375 0.2 0.1
0.0625 0.2 0.1
0.0875 0.2 0.1
0.1125 0.2 0.1
0.1375 0.2 0.1
0.1625 0.2 0.1
0.1875 0.2 0.1
0.225 0.2 0.1
0.25 0.2 0.1
0.275 0.2 0.1
0.3 0.2 0.1
0.325 0.2 0.1
0.35 0.2 0.1
0.375 0.2 0.1
0.4 0.2 0.1
0.425 0.2 0.1
0.45 0.2 0.1
0.475 0.2 0.1
0.2125 0.2 0.1
0.2375 0.2 0.1
0.2625 0.2 0.1
0.2875 0.2 0.1
0.3125 0.2 0.1
0.3375 0.2 0.1
0.3625 0.2 0.1
0.3875 0.2 0.1
0.4125 0.2 0.1
0.4375 0.2 0.1
0.4625 0.2 0.1
0.4875 0.2 0.1
0.525 0.2 0.1
0.55 0.2 0.1
0.575 0.2 0.1
0.6 0.2 0.1
0.625 0.2 0.1
0.65 0.2 0.1
0.675 0.2 0.1
0.7 0.2 0.1
0.725 0.2 0.1
0.75 0.2 0.1
0.775 0.2 0.1
0.5125 0.2 0.1
0.5375 0.2 0.1
0.5625 0.2 0.1
0.5875 0.2 0.1
0.6125 0.2 0.1
0.6375 0.2 0.1
0.6625 0.2 0.1
0.6875 0.2 0.1
0.7125 0.2 0.1
0.7375 0.2 0.1
0.7625 0.2 0.1
0.7875 0.2 0.1
0.825 0.2 0.1
0.85 0.2 0.1
0.875 0.2 0.1
0.9 0.2 0.1
0.925 0.2 0.1
0.95 0.2 0.1
0.975 0.2 0.1
0.8125 0.2 0.1
0.8375 0.2 0.1
0.8625 0.2 0.1
0.8875 0.2 0.1
0.9125 0.2 0.1
0.9375 0.2 0.1
0.9625 0.2 0.1
0.9875 0.2 0.1
0 0.225 0.1
0 0.25 0.1
0 0.275 0.1
0 0.3 0.1
0 0.325 0.1
0 0.35 0.1
0 0.375 0.1
0 0.4 0.1
0 0.425 0.1
0 0.45 0.1
0 0.475 0.1
0 0.2125 0.1
0 0.2375 0.1
0 0.2625 0.1
0 0.2875 0.1
0 0.3125 0.1
0 0.3375 0.1
0 0.3625 0.1
0 0.3875 0.1
0 0.4125 0.1
0 0.4375 0.1
0 0.4625 0.1
0 0.4875 0.1
0.2 0.225 0.1
0.2 0.25 0.1
0.2 0.275 0.1
0.2 0.3 0.1
0.2 0.325 0.1
0.2 0.35 0.1
0.2 0.375 0.1
0.2 0.4 0.1
0.2 0.425 0.1
0.2 0.45 0.1
0.2 0.475 0.1
0.2 0.2125 0.1
0.2 0.2375 0.1
0.2 0.2625 0.1
0.2 0.2875 0.1
0.2 0.3125 0.1
0.2 0.3375 0.1
0.2 0.3625 0.1
0.2 0.3875 0.1
0.2 0.4125 0.1
0.2 0.4375 0.1
0.2 0.4625 0.1
0.2 0.4875 0.1
0.8 0.225 0.1
0.8 0.25 0.1
0.8 0.275 0.1
0.8 0.3 0.1
0.8 0.325 0.1
0.8 0.35 0.1
0.8 0.375 0.1
0.8 0.4 0.1
0.8 0.425 0.1
0.8 0.45 0.1
0.8 0.475 0.1
0.8 0.2125 0.1
0.8 0.2375 0.1
0.8 0.2625 0.1
0.8 0.2875 0.1
0.8 0.3125 0.1
0.8 0.3375 0.1
0.8 0.3625 0.1
0.8 0.3875 0.1
0.8 0.4125 0.1
0.8 0.4375 0.1
0.8 0.4625 0.1
0.8 0.4875 0.1
1 0.225 0.1
1 0.25 0.1
1 0.275 0.1
1 0.3 0.1
1 0.325 0.1
1 0.35 0.1
1 0.375 0.1
1 0.4 0.1
1 0.425 0.1
1 0.45 0.1
1 0.475 0.1
1 0.2125 0.1
1 0.2375 0.1
1 0.2625 0.1
1 0.2875 0.1
1 0.3125 0.1
1 0.3375 0.1
1 0.3625 0.1
1 0.3875 0.1
1 0.4125 0.1
1 0.4375 0.1
1 0.4625 0.1
1 0.4875 0.1
0.025 0.5 0.1
0.05 0.5 0.1
0.075 0.5 0.1
0.1 0.5 0.1
0.125 0.5 0.1
0.15 0.5 0.1
0.175 0.5 0.1
0.0125 0.5 0.1
0.0375 0.5 0.1
0.0625 0.5 0.1
0.0875 0.5 0.1
0.1125 0.5 0.1
0.1375 0.5 0.1
0.1625 0.5 0.1
0.1875 0.5 0.1
0.825 0.5 0.1
0.85 0.5 0.1
0.875 0.5 0.1
0.9 0.5 0.1
0.925 0.5 0.1
0.95 0.5 0.1
0.975 0.5 0.1
0.8125 0.5 0.1
0.8375 0.5 0.1
0.8625 0.5 0.1
0.8875 0.5 0.1
0.9125 0.5 0.1
0.9375 0.5 0.1
0.9625 0.5 0.1
0.9875 0.5 0.1
0 0.525 0.1
0 0.55 0.1
0 0.575 0.1
0 0.6 0.1
0 0.625 0.1
0 0.65 0.1
0 0.675 0.1
0 0.7 0.1
0 0.725 0.1
0 0.75 0.1
0 0.775 0.1
0 0.5125 0.1
0 0.5375 0.1
0 0.5625 0.1
0 0.5875 0.1
0 0.6125 0.1
0 0.6375 0.1
0 0.6625 0.1
0 0.6875 0.1
0 0.7125 0.1
0 0.7375 0.1
0 0.7625 0.1
0 0.7875 0.1
0.2 0.525 0.1
0.2 0.55 0.1
0.2 0.575 0.1
0.2 0.6 0.1
0.2 0.625 0.1
0.2 0.65 0.1
0.2 0.675 0.1
0.2 0.7 0.1
0.2 0.725 0.1
0.2 0.75 0.1
0.2 0.775 0.1
0.2 0.5125 0.1
0.2 0.5375 0.1
0.2 0.5625 0.1
0.2 0.5875 0.1
0.2 0.6125 0.1
0.2 0.6375 0.1
0.2 0.6625 0.1
0.2 0.6875 0.1
0.2 0.7125 0.1
0.2 0.7375 0.1
0.2 0.7625 0.1
0.2 0.7875 0.1
0.8 0.525 0.1
0.8 0.55 0.1
0.8 0.575 0.1
0.8 0.6 0.1
0.8 0.625 0.1
0.8 0.65 0.1
0.8 0.675 0.1
0.8 0.7 0.1
0.8 0.725 0.1
0.8 0.75 0.1
0.8 0.775 0.1
0.8 0.5125 0.1
0.8 0.5375 0.1
0.8 0.5625 0.1
0.8 0.5875 0.1
0.8 0.6125 0.1
0.8 0.6375 0.1
0.8 0.6625 0.1
0.8 0.6875 0.1
0.8 0.7125 0.1
0.8 0.7375 0.1
0.8 0.7625 0.1
0.8 0.7875 0.1
1 0.525 0.1
1 0.55 0.1
1 0.575 0.1
1 0.6 0.1
1 0.625 0.1
1 0.65 0.1
1 0.675 0.1
1 0.7 0.1
1 0.725 0.1
1 0.75 0.1
1 0.775 0.1
1 0.5125 0.1
1 0.5375 0.1
1 0.5625 0.1
1 0.5875 0.1
1 0.6125 0.1
1 0.6375 0.1
1 0.6625 0.1
1 0.6875 0.1
1 0.7125 0.1
1 0.7375 0.1
1 0.7625 0.1
1 0.7875 0.1
0.025 0.8 0.1
0.05 0.8 0.1
0.075 0.8 0.1
0.1 0.8 0.1
0.125 0.8 0.1
0.15 0.8 0.1
0.175 0.8 0.1
0.0125 0.8 0.1
0.0375 0.8 0.1
0.0625 0.8 0.1
0.0875 0.8 0.1
0.1125 0.8 0.1
0.1375 0.8 0.1
0.1625 0.8 0.1
0.1875 0.8 0.1
0.225 0.8 0.1
0.25 0.8 0.1
0.275 0.8 0.1
0.3 0.8 0.1
0.325 0.8 0.1
0.35 0.8 0.1
0.375 0.8 0.1
0.4 0.8 0.1
0.425 0.8 0.1
0.45 0.8 0.1
0.475 0.8 0.1
0.2125 0.8 0.1
0.2375 0.8 0.1
0.2625 0.8 0.1
0.2875 0.8 0.1
0.3125 0.8 0.1
0.3375 0.8 0.1
0.3625 0.8 0.1
0.3875 0.8 0.1
0.4125 0.8 0.1
0.4375 0.8 0.1
0.4625 0.8 0.1
0.4875 0.8 0.1
0.525 0.8 0.1
0.55 0.8 0.1
0.575 0.8 0.1
0.6 0.8 0.1
0.625 0.8 0.1
0.65 0.8 0.1
0.675 0.8 0.1
0.7 0.8 0.1
0.725 0.8 0.1
0.75 0.8 0.1
0.775 0.8 0.1
0.5125 0.8 0.1
0.5375 0.8 0.1
0.5625 0.8 0.1
0.5875 0.8 0.1
0.6125 0.8 0.1
0.6375 0.8 0.1
0.6625 0.8 0.1
0.6875 0.8 0.1
0.7125 0.8 0.1
0.7375 0.8 0.1
0.7625 0.8 0.1
0.7875 0.8 0.1
0.825 0.8 0.1
0.85 0.8 0.1
0.875 0.8 0.1
0.9 0.8 0.1
0.925 0.8 0.1
0.95 0.8 0.1
0.975 0.8 0.1
0.8125 0.8 0.1
0.8375 0.8 0.1
0.8625 0.8 0.1
0.8875 0.8 0.1
0.9125 0.8 0.1
0.9375 0.8 0.1
0.9625 0.8 0.1
0.9875 0.8 0.1
0 0.825 0.1
0 0.85 0.1
0 0.875 0.1
0 0.9 0.1
0 0.925 0.1
0 0.95 0.1
0 0.975 0.1
0 0.8125 0.1
0 0.8375 0.1
0 0.8625 0.1
0 0.8875 0.1
0 0.9125 0.1
0 0.9375 0.1
0 0.9625 0.1
0 0.9875 0.1
0.2 0.825 0.1
0.2 0.85 0.1
0.2 0.875 0.1
0.2 0.9 0.1
0.2 0.925 0.1
0.2 0.95 0.1
0.2 0.975 0.1
0.2 0.8125 0.1
0.2 0.8375 0.1
0.2 0.8625 0.1
0.2 0.8875 0.1
0.2 0.9125 0.1
0.2 0.9375 0.1
0.2 0.9625 0.1
0.2 0.9875 0.1
0.5 0.825 0.1
0.5 0.85 0.1
0.5 0.875 0.1
0.5 0.9 0.1
0.5 0.925 0.1
0.5 0.95 0.1
0.5 0.975 0.1
0.5 0.8125 0.1
0.5 0.8375 0.1
0.5 0.8625 0.1
0.5 0.8875 0.1
0.5 0.9125 0.1
0.5 0.9375 0.1
0.5 0.9625 0.1
0.5 0.9875 0.1
0.8 0.825 0.1
0.8 0.85 0.1
0.8 0.875 0.1
0.8 0.9 0.1
0.8 0.925 0.1
0.8 0.95 0.1
0.8 0.975 0.1
0.8 0.8125 0.1
0.8 0.8375 0.1
0.8 0.8625 0.1
0.8 0.8875 0.1
0.8 0.9125 0.1
0.8 0.9375 0.1
0.8 0.9625 0.1
0.8 0.9875 0.1
1 0.825 0.1
1 0.85 0.1
1 0.875 0.1
1 0.9 0.1
1 0.925 0.1
1 0.95 0.1
1 0.975 0.1
1 0.8125 0.1
1 0.8375 0.1
1 0.8625 0.1
1 0.8875 0.1
1 0.9125 0.1
1 0.9375 0.1
1 0.9625 0.1
1 0.9875 0.1
0.025 1 0.1
0.05 1 0.1
0.075 1 0.1
0.1 1 0.1
0.125 1 0.1
0.15 1 0.1
0.175 1 0.1
0.0125 1 0.1
0.0375 1 0.1
0.0625 1 0.1
0.0875 1 0.1
0.1125 1 0.1
0.1375 1 0.1
0.1625 1 0.1
0.1875 1 0.1
0.225 1 0.1
0.25 1 0.1
0.275 1 0.1
0.3 1 0.1
0.325 1 0.1
0.35 1 0.1
0.375 1 0.1
0.4 1 0.1
0.425 1 0.1
0.45 1 0.1
0.475 1 0.1
0.2125 1 0.1
0.2375 1 0.1
0.2625 1 0.1
0.2875 1 0.1
0.3125 1 0.1
0.3375 1 0.1
0.3625 1 0.1
0.3875 1 0.1
0.4125 1 0.1
0.4375 1 0.1
0.4625 1 0.1
0.4875 1 0.1
0.525 1 0.1
0.55 1 0.1
0.575 1 0.1
0.6 1 0.1
0.625 1 0.1
0.65 1 0.1
0.675 1 0.1
0.7 1 0.1
0.725 1 0.1
0.75 1 0.1
0.775 1 0.1
0.5125 1 0.1
0.5375 1 0.1
0.5625 1 0.1
0.5875 1 0.1
0.6125 1 0.1
0.6375 1 0.1
0.6625 1 0.1
0.6875 1 0.1
0.7125 1 0.1
0.7375 1 0.1
0.7625 1 0.1
0.7875 1 0.1
0.825 1 0.1
0.85 1 0.1
0.875 1 0.1
0.9 1 0.1
0.925 1 0.1
0.95 1 0.1
0.975 1 0.1
0.8125 1 0.1
0.8375 1 0.1
0.8625 1 0.1
0.8875 1 0.1
0.9125 1 0.1
0.9375 1 0.1
0.9625 1 0.1
0.9875 1 0.1
0.025 0.025 0.1
0.025 0.05 0.1
0.025 0.075 0.1
0.025 0.1 0.1
0.025 0.125 0.1
0.025 0.15 0.1
0.025 0.175 0.1
0.05 0.025 0.1
0.05 0.05 0.1
0.05 0.075 0.1
0.05 0.1 0.1
0.05 0.125 0.1
0.05 0.15 0.1
0.05 0.175 0.1
0.075 0.025 0.1
0.075 0.05 0.1
0.075 0.075 0.1
0.075 0.1 0.1
0.075 0.125 0.1
0.075 0.15 0.1
0.075 0.175 0.1
0.1 0.025 0.1
0.1 0.05 0.1
0.1 0.075 0.1
0.1 0.1 0.1
0.1 0.125 0.1
0.1 0.15 0.1
0.1 0.175 0.1
0.125 0.025 0.1
0.125 0.05 0.1
0.125 0.075 0.1
0.125 0.1 0.1
0.125 0.125 0.1
0.125 0.15 0.1
0.125 0.175 0.1
0.15 0.025 0.1
0.15 0.05 0.1
0.15 0.075 0.1
0.15 0.1 0.1
0.15 0.125 0.1
0.15 0.15 0.1
0.15 0.175 0.1
[...]
    <PointData>
      <DataArray type="Float64" NumberOfComponents="3" Name="Velocity" format="ascii">
0 0 0
0 0 0
0 0 0
0 0 0
0 0 0
0 0 0
-0.0180778 0.0451565 0
-0.00978908 7.80252e-05 0
-0.0110379 -0.0419538 0
0 0 0
0 0 0
0.0106667 0.024193 0
0.00994349 -0.0211887 0
0 0 0
0 0 0
-0.0439401 0.00741545 0
-0.0351069 -0.000715328 0
-0.0455202 -0.00452824 0
0 0 0
0 0 0
1 0 0
1 0 0
1 0 0
0 0 0
0 0 0
0 0 0
0 0 0
0 0 0
0 0 0
0 0 0
0 0 0
0 0 0
0 0 0
0 0 0
0 0 0
0 0 0
0 0 0
0 0 0
0 0 0
0 0 0
0 0 0
0 0 0
0 0 0
0 0 0
0 0 0
0 0 0
0 0 0
0 0 0
0 0 0
0 0 0
0 0 0
0 0 0
0 0 0
0 0 0
0 0 0
0 0 0
0 0 0
0 0 0
0 0 0
0 0 0
0 0 0
0 0 0
0 0 0
0 0 0
0 0 0
0 0 0
0 0 0
0 0 0
0 0 0
0 0 0
0 0 0
0 0 0
0 0 0
0 0 0
0 0 0
0 0 0
0 0 0
0 0 0
0 0 0
0 0 0
0 0 0
0 0 0
0 0 0
0 0 0
0 0 0
0 0 0
0 0 0
0 0 0
0 0 0
0 0 0
0 0 0
0 0 0
0 0 0
0 0 0
0 0 0
0 0 0
0 0 0
0 0 0
0 0 0
0 0 0
0 0 0
0 0 0
0 0 0
0 0 0
0 0 0
0 0 0
0 0 0
0 0 0
0 0 0
0 0 0
0 0 0
0 0 0
0 0 0
0 0 0
0 0 0
-0.0845223 0.00884002 0
-0.126818 0.0254609 0
-0.121146 0.0414763 0
-0.0618067 0.0461598 0
-0.0525152 0.0477061 0
-0.0391766 0.0468262 0
-0.0276352 0.0470142 0
-0.0464867 0.00296403 0
-0.111431 0.0167011 0
-0.129943 0.0341374 0
-0.098965 0.0454712 0
-0.0572913 0.0453925 0
-0.0451353 0.0486878 0
-0.0327667 0.0474704 0
-0.0213967 0.0460708 0
-0.148286 0.00030128 0
-0.211387 0.000859488 0
-0.182814 0.00143553 0
-0.0674944 0.00155859 0
-0.0529023 0.000989897 0
-0.0348925 0.000624528 0
-0.0208673 0.000328153 0
-0.0834824 9.88908e-05 0
-0.191138 0.000570918 0
-0.208495 0.00116722 0
-0.135308 0.00152218 0
-0.0572412 0.00133269 0
-0.0419865 0.00091161 0
-0.0269484 0.000479552 0
-0.0153934 0.000191215 0
-0.0993167 -0.00911425 0
-0.146032 -0.0262686 0
-0.135411 -0.0425571 0
-0.0594876 -0.0427809 0
-0.0488865 -0.0452372 0
-0.033716 -0.0444219 0
-0.0210913 -0.0437108 0
-0.0551664 -0.00307478 0
-0.129561 -0.0172133 0
-0.147792 -0.0351425 0
-0.108093 -0.0470198 0
-0.051514 -0.0437212 0
-0.0393846 -0.0446538 0
-0.0264431 -0.0440095 0
-0.015923 -0.0429775 0
0 0 0
0 0 0
0 0 0
0 0 0
0 0 0
0 0 0
0 0 0
0 0 0
0 0 0
0 0 0
0 0 0
0 0 0
0 0 0
0 0 0
0 0 0
-0.00432401 0.061403 0
-0.0119313 0.0959564 0
-0.0191071 0.10055 0
-0.020552 0.073984 0
-0.021082 0.0701107 0
-0.0204428 0.0615835 0
-0.018923 0.0534039 0
-0.00156225 0.0335982 0
-0.00794472 0.082269 0
-0.0158138 0.101788 0
-0.0207496 0.0910228 0
-0.0206795 0.0715067 0
-0.0201638 0.0663703 0
-0.0193883 0.0578262 0
-0.0186105 0.0504794 0
-0.0168437 0.039586 0
-0.0146725 0.0331012 0
-0.0140899 0.0278153 0
-0.0136453 0.0227425 0
-0.0131274 0.0189176 0
-0.0124363 0.0149304 0
-0.0120513 0.0121306 0
-0.0115357 0.00923803 0
-0.0112632 0.00662843 0
-0.0107132 0.00413336 0
-0.0103326 0.00202641 0
-0.016383 0.0427668 0
-0.0155126 0.0361515 0
-0.0143326 0.030336 0
-0.0138928 0.0251572 0
-0.0133237 0.0206948 0
-0.0129185 0.0167936 0
-0.0121647 0.0135578 0
-0.0117731 0.0104613 0
-0.0113832 0.00783257 0
-0.0109642 0.0053629 0
-0.0104603 0.00317421 0
-0.00998013 0.000949632 0
-0.00970276 -0.00187306 0
-0.00969219 -0.0041325 0
-0.00928955 -0.00614904 0
-0.00886646 -0.00850699 0
-0.00858723 -0.011099 0
-0.00859884 -0.013772 0
-0.00827118 -0.0168041 0
-0.00843921 -0.0207882 0
-0.00859349 -0.0248707 0
-0.0088515 -0.0300133 0
-0.00953213 -0.0358555 0
-0.00970341 -0.00109322 0
-0.00974258 -0.00314219 0
-0.00945089 -0.00526954 0
-0.00920943 -0.00752267 0
-0.00875226 -0.00984808 0
-0.00851712 -0.0123752 0
-0.00843513 -0.0154506 0
-0.00836397 -0.0187309 0
-0.00844519 -0.0227016 0
-0.00865345 -0.0274436 0
-0.00913053 -0.032813 0
-0.0099698 -0.0385781 0
-0.0126627 -0.0497309 0
-0.0143871 -0.0583938 0
-0.0162604 -0.0683427 0
-0.0165086 -0.0721034 0
-0.0187318 -0.111191 0
-0.0121892 -0.109427 0
-0.00453893 -0.0711276 0
-0.0118839 -0.0458067 0
-0.0135413 -0.0538107 0
-0.0151316 -0.062622 0
-0.0160719 -0.0684376 0
-0.0199684 -0.0979555 0
-0.0159101 -0.114827 0
-0.00822363 -0.0946162 0
-0.00170953 -0.0392046 0
0 0 0
0 0 0
0 0 0
0 0 0
0 0 0
0 0 0
0 0 0
0 0 0
0 0 0
0 0 0
0 0 0
0 0 0
0 0 0
0 0 0
0 0 0
0 0 0
0 0 0
0 0 0
0 0 0
0 0 0
0 0 0
0 0 0
0 0 0
-0.00904438 0.0443081 0
-0.00213424 0.0434382 0
0.00304087 0.0418684 0
0.00788024 0.040138 0
0.0106196 0.0384578 0
0.0128745 0.0365181 0
0.0135357 0.0345331 0
0.0141475 0.0326601 0
0.0138547 0.0305964 0
0.013296 0.0284403 0
0.0121129 0.0262541 0
-0.013298 0.0462288 0
-0.00558316 0.0442111 0
0.000505199 0.0426226 0
0.0056644 0.0410157 0
0.00928837 0.0392728 0
0.0118376 0.0374843 0
0.013255 0.0354808 0
0.0140486 0.0335876 0
0.0141362 0.031626 0
0.0137017 0.029558 0
0.0127178 0.0273172 0
0.0114285 0.0251738 0
-0.00413576 -0.0406659 0
0.00176991 -0.0391351 0
0.00642438 -0.0375682 0
0.00969658 -0.0359271 0
0.0119468 -0.0341793 0
0.0131654 -0.0323397 0
0.0136611 -0.0304706 0
0.0139111 -0.0285954 0
0.0131668 -0.0267275 0
0.0125465 -0.0248577 0
0.0113324 -0.0230228 0
-0.00781927 -0.0414268 0
-0.000959532 -0.0398602 0
0.00424286 -0.0383579 0
0.00812892 -0.0367571 0
0.0109543 -0.0350508 0
0.0126572 -0.0332374 0
0.0135542 -0.0313635 0
0.0138402 -0.0295117 0
0.013616 -0.0276189 0
0.0129874 -0.0257514 0
0.0119836 -0.0238947 0
0.0107183 -0.0220602 0
0 0 0
0 0 0
0 0 0
0 0 0
0 0 0
0 0 0
0 0 0
0 0 0
0 0 0
0 0 0
0 0 0
0 0 0
0 0 0
0 0 0
0 0 0
0 0 0
0 0 0
0 0 0
0 0 0
0 0 0
0 0 0
0 0 0
0 0 0
-0.000791439 0.0718684 0
-0.00154737 0.103231 0
-0.00127549 0.0930529 0
0.000652948 0.0418015 0
0.00312327 0.0377011 0
0.00589134 0.0317112 0
0.00844632 0.0274577 0
-0.000371349 0.04085 0
-0.00123814 0.0927303 0
-0.00158877 0.10333 0
-0.000682477 0.0725601 0
0.00205148 0.0363887 0
0.00447854 0.0337842 0
0.00718248 0.0293308 0
0.00967855 0.0260229 0
0.00806098 -0.0243788 0
0.00578135 -0.0287816 0
0.00330667 -0.035317 0
0.00136069 -0.0398688 0
-0.000400375 -0.0999064 0
-0.000701838 -0.113362 0
-0.000446586 -0.0798058 0
0.00910525 -0.0231321 0
0.00694075 -0.0262646 0
0.00460849 -0.0309289 0
0.00234545 -0.0338413 0
0.000136159 -0.0757503 0
-0.000642186 -0.112519 0
-0.000632226 -0.102439 0
-0.000227552 -0.045596 0
0 0 0
0 0 0
0 0 0
0 0 0
0 0 0
0 0 0
0 0 0
0 0 0
0 0 0
0 0 0
0 0 0
0 0 0
0 0 0
0 0 0
0 0 0
0 0 0
0 0 0
0 0 0
0 0 0
0 0 0
0 0 0
0 0 0
0 0 0
0.00895427 0.0223208 0
0.0069086 0.0202534 0
0.00463557 0.0182726 0
0.00189119 0.0163903 0
-0.00120147 0.0145673 0
-0.00482128 0.0125592 0
-0.00886169 0.010279 0
-0.0153086 0.00871951 0
-0.0191956 0.00657555 0
-0.0294508 0.00518542 0
-0.034734 0.00543934 0
0.00985235 0.0232028 0
0.00804787 0.021285 0
0.00588718 0.0192917 0
0.00326156 0.0172823 0
0.000408503 0.0154461 0
-0.00304276 0.0135548 0
-0.00704452 0.0113745 0
-0.0122091 0.0093675 0
-0.0175253 0.00789416 0
-0.0248121 0.00585614 0
-0.0314534 0.00531379 0
-0.0417696 0.00274187 0
0.00817431 -0.0193435 0
0.00645476 -0.0174539 0
0.00324946 -0.0156844 0
0.00120192 -0.0142981 0
-0.00193241 -0.0127317 0
-0.00588962 -0.0111469 0
-0.0102933 -0.00950692 0
-0.0153891 -0.00782509 0
-0.021566 -0.00629704 0
-0.0284156 -0.00483154 0
-0.0361581 -0.00485978 0
0.00914692 -0.0202178 0
0.00729465 -0.0183726 0
0.00514584 -0.0164728 0
0.00249718 -0.0149823 0
-0.000409314 -0.0134479 0
-0.00393056 -0.0119018 0
-0.00795594 -0.0103311 0
-0.0127312 -0.00860953 0
-0.0182913 -0.0069815 0
-0.0247644 -0.00551038 0
-0.0321861 -0.00407335 0
-0.0402758 -0.00291711 0
0 0 0
0 0 0
0 0 0
0 0 0
0 0 0
0 0 0
0 0 0
0 0 0
0 0 0
0 0 0
0 0 0
0 0 0
0 0 0
0 0 0
0 0 0
0 0 0
0 0 0
0 0 0
0 0 0
0 0 0
0 0 0
0 0 0
0 0 0
-0.00411981 0.121508 0
-0.0118775 0.170109 0
-0.0220017 0.146556 0
-0.0475051 0.015836 0
-0.0508257 0.0134124 0
-0.0484559 0.00698823 0
-0.0461469 0.00432453 0
-0.00159342 0.0701448 0
-0.00773967 0.154519 0
-0.0165867 0.167448 0
-0.0285066 0.102151 0
-0.0499712 0.00974393 0
-0.0496826 0.0079984 0
-0.047283 0.00461002 0
-0.0473329 0.00208718 0
-0.0425698 0.00573091 0
-0.0398115 0.00673333 0
-0.0389502 0.00688298 0
-0.0384406 0.00689977 0
-0.0379549 0.00649709 0
-0.037202 0.00616825 0
-0.0361516 0.00496192 0
-0.0353368 0.00547962 0
-0.0353809 0.00180717 0
-0.0356369 0.00279807 0
-0.0352273 0.00186316 0
-0.0424392 0.00560885 0
-0.0409154 0.00606563 0
-0.0393805 0.00641788 0
-0.0387559 0.00658666 0
-0.0381656 0.00646407 0
-0.0375137 0.00605674 0
-0.036549 0.00564905 0
-0.0357993 0.00458922 0
-0.0351361 0.00369894 0
-0.0358494 0.00259917 0
-0.0353866 0.00154945 0
-0.0349854 0.000725465 0
-0.0356395 -0.000530046 0
-0.035318 -0.00226694 0
-0.0361299 -0.00321683 0
-0.0366226 -0.00355036 0
-0.0359227 -0.00354696 0
-0.0368934 -0.00499137 0
-0.0380056 -0.00503498 0
-0.0386204 -0.00603696 0
-0.0392904 -0.00442091 0
-0.04016 -0.00564793 0
-0.0436956 -0.00373304 0
-0.0354368 -0.000612376 0
-0.0353116 -0.00137584 0
-0.0356164 -0.0027375 0
-0.0364433 -0.00348483 0
-0.0365569 -0.00434635 0
-0.0364058 -0.0050831 0
-0.0374736 -0.00548817 0
-0.0381779 -0.00536045 0
-0.0390925 -0.00546 0
-0.0394134 -0.00473883 0
-0.0413678 -0.0045115 0
-0.0433601 -0.00345083 0
-0.0469 -0.00387955 0
-0.0500297 -0.0065308 0
-0.0505321 -0.0115181 0
-0.0437703 -0.0203266 0
-0.0216867 -0.14348 0
-0.0102738 -0.16333 0
-0.00310058 -0.115244 0
-0.046175 -0.00173901 0
-0.0474536 -0.00400589 0
-0.0486159 -0.00760451 0
-0.0524524 -0.0151415 0
-0.0325198 -0.0999853 0
-0.0152545 -0.161783 0
-0.0060737 -0.147516 0
-0.00103202 -0.0664394 0
0 0 0
0 0 0
0 0 0
0 0 0
0 0 0
0 0 0
0 0 0
0 0 0
0 0 0
0 0 0
0 0 0
0 0 0
0 0 0
0 0 0
0 0 0
-0.0542213 0.00376671 0
-0.0660204 0.00323855 0
-0.0796141 0.00314535 0
-0.074102 0.00172226 0
-0.0506504 -0.0134256 0
0.150398 -0.0111256 0
0.507451 -0.00452944 0
-0.0475105 0.0064537 0
-0.0595402 0.00342785 0
-0.0715198 0.00349456 0
-0.0758955 0.00293368 0
-0.0879063 -0.0102322 0
0.0297395 -0.0132454 0
0.310511 -0.00790572 0
0.738838 -0.00159279 0
-0.0460118 -3.26536e-05 0
-0.0578954 9.58987e-05 0
-0.0706445 0.00010582 0
-0.0706332 0.000120876 0
-0.0395252 -0.000108868 0
0.150611 -8.008e-05 0
0.503054 -3.39879e-05 0
-0.0414239 -0.000277659 0
-0.0515272 5.61706e-05 0
-0.0638488 0.000161762 0
-0.072007 0.000144294 0
-0.0739396 -4.46727e-05 0
0.0350208 -9.93449e-05 0
0.307128 -5.22264e-05 0
0.735567 -7.61993e-06 0
-0.0553005 -0.00257216 0
-0.0657679 -0.00316404 0
-0.0765972 -0.00325261 0
-0.0740249 0.00226157 0
-0.0458718 0.0154075 0
0.156197 0.0124933 0
0.511337 0.00495144 0
-0.048291 -0.00321704 0
-0.0594198 -0.00189342 0
-0.0703762 -0.000814608 0
-0.0796801 -0.00405689 0
-0.083835 0.0103244 0
0.0357129 0.0151117 0
0.315635 0.00888065 0
0.740802 0.00171523 0
0 0 0
0 0 0
0 0 0
0 0 0
0 0 0
0 0 0
0 0 0
0 0 0
0 0 0
0 0 0
0 0 0
0 0 0
0 0 0
0 0 0
0 0 0
1 0 0
1 0 0
1 0 0
1 0 0
1 0 0
1 0 0
1 0 0
1 0 0
1 0 0
1 0 0
1 0 0
1 0 0
1 0 0
1 0 0
1 0 0
1 0 0
1 0 0
1 0 0
1 0 0
1 0 0
1 0 0
1 0 0
1 0 0
1 0 0
1 0 0
1 0 0
1 0 0
1 0 0
1 0 0
1 0 0
1 0 0
1 0 0
1 0 0
1 0 0
1 0 0
1 0 0
1 0 0
1 0 0
1 0 0
1 0 0
1 0 0
1 0 0
1 0 0
1 0 0
1 0 0
1 0 0
1 0 0
1 0 0
1 0 0
1 0 0
1 0 0
1 0 0
1 0 0
1 0 0
1 0 0
1 0 0
1 0 0
1 0 0
1 0 0
1 0 0
1 0 0
1 0 0
1 0 0
1 0 0
1 0 0
1 0 0
1 0 0
1 0 0
1 0 0
1 0 0
1 0 0
1 0 0
1 0 0
1 0 0
1 0 0
1 0 0
-0.00218399 0.0016606 0
-0.00511777 0.00737493 0
-0.0069692 0.0161216 0
-0.0075374 0.0262295 0
-0.00728923 0.0363395 0
-0.00668486 0.0457933 0
-0.00573328 0.054285 0
-0.00799856 0.00471469 0
-0.0161933 0.0156409 0
-0.0209519 0.0304696 0
-0.0220064 0.0464807 0
-0.0207544 0.0615235 0
-0.0188016 0.0748117 0
-0.0161164 0.0863349 0
-0.0173398 0.00689098 0
-0.0317732 0.0215662 0
-0.0390955 0.0399463 0
-0.0393832 0.0581439 0
-0.0354486 0.0732688 0
-0.0309268 0.0845505 0
-0.0270375 0.0933168 0
-0.0290944 0.00817387 0
-0.050042 0.0249048 0
-0.0587189 0.0445586 0
-0.0560793 0.0619861 0
-0.0473013 0.0737452 0
-0.0377442 0.0790157 0
-0.0345184 0.0796202 0
-0.0422069 0.0088687 0
-0.0693933 0.0264421 0
-0.0777562 0.0456901 0
-0.0700272 0.0603727 0
-0.0538314 0.065529 0
-0.035585 0.0686052 0
-0.0292836 0.0700224 0
-0.0560759 0.0092852 0
-0.0888009 0.0270636 0
-0.0944358 0.04476 0
-0.0794909 0.0557612 0
-0.0467863 0.0601131 0
-0.0376956 0.0618087 0
-0.0293908 0.0619353 0
-0.0703532 0.00942637 0
-0.107933 0.0271888 0
-0.108257 0.0438266 0
-0.0798708 0.0478496 0
-0.0496035 0.0535101 0
-0.0394754 0.0540965 0
-0.0286724 0.0546208 0
-0.00055669 0.000416302 0
-0.000135666 -8.1553e-05 0
-0.000747101 0.000422056 0
-0.00384579 0.00407532 0
-0.00135709 0.00160525 0
-0.00180993 0.00332667 0
-0.00631391 0.0114926 0
-0.00225272 0.00551883 0
-0.00249003 0.00802679 0
-0.00746159 0.0211158 0
-0.00267804 0.0107567 0
-0.00270993 0.0135748 0
-0.00752016 0.0313394 0
-0.00271047 0.0164217 0
-0.0026331 0.0192205 0
-0.00703034 0.0411577 0
-0.00254082 0.021958 0
-0.00241532 0.0245974 0
-0.00624912 0.0501837 0
-0.0022579 0.027124 0
-0.00206101 0.0294951 0
-0.00509488 0.0580681 0
-0.00182983 0.0316804 0
-0.00328292 0.00157405 0
-0.00162196 0.00110141 0
-0.00460852 0.00341072 0
-0.0125015 0.00956001 0
-0.00759294 0.00702965 0
-0.0100221 0.0118114 0
-0.0191638 0.0227564 0
-0.012055 0.017535 0
-0.0132909 0.0238849 0
-0.021942 0.0384932 0
-0.0140432 0.0306012 0
-0.0141805 0.0374031 0
-0.0215858 0.0542023 0
-0.0140126 0.0441135 0
-0.0135645 0.050586 0
-0.0198181 0.0683709 0
-0.0130108 0.0567808 0
-0.0123741 0.0626741 0
-0.0175395 0.080792 0
-0.0115581 0.0682314 0
-0.0105803 0.0734264 0
-0.0143344 0.0915179 0
-0.00941632 0.0781623 0
-0.00827955 0.00230165 0
-0.0055602 0.00202035 0
-0.0122829 0.00606638 0
-0.0253777 0.0135443 0
-0.0185078 0.0118594 0
-0.0235462 0.0190425 0
-0.0364595 0.0305654 0
-0.0274008 0.0272129 0
-0.0296931 0.0359241 0
-0.0400109 0.0492898 0
-0.0307362 0.044782 0
-0.03059 0.0534067 0
-0.037673 0.0661773 0
-0.0296543 0.0615365 0
-0.0282653 0.0690059 0
-0.033046 0.0793747 0
-0.0267249 0.0757811 0
-0.0252411 0.0819213 0
-0.0290661 0.0890283 0
-0.0236152 0.0876302 0
-0.0217087 0.0930146 0
-0.0241059 0.0975652 0
-0.0193408 0.0978702 0
-0.014749 0.00273766 0
-0.0113809 0.00258553 0
-0.0229824 0.00774013 0
-0.04104 0.0158573 0
-0.0329679 0.0149433 0
-0.0406912 0.0235936 0
-0.056006 0.0347221 0
-0.0460836 0.0330857 0
-0.0488727 0.0428124 0
-0.0585901 0.0538053 0
-0.0493885 0.052233 0
-0.0479872 0.060856 0
-0.0519769 0.0685986 0
-0.0452138 0.0683736 0
-0.0418279 0.0747031 0
-0.042072 0.0773755 0
-0.0382376 0.079626 0
-0.0351854 0.0831957 0
-0.035915 0.0795479 0
-0.0332771 0.085988 0
-0.031713 0.0884112 0
-0.0300155 0.0777563 0
-0.0281477 0.0903088 0
-0.0220962 0.00297926 0
-0.0183465 0.00290206 0
-0.0355153 0.00866897 0
-0.0581318 0.0170383 0
-0.0494841 0.0165986 0
-0.0596667 0.0259008 0
-0.0759448 0.0363077 0
-0.0660251 0.035774 0
-0.0684244 0.045451 0
-0.0754696 0.0538844 0
-0.0673633 0.0542574 0
-0.0635272 0.0616826 0
-0.0616386 0.0643513 0
-0.0575942 0.0670401 0
-0.0514633 0.0703978 0
-0.0473116 0.065912 0
-0.0449144 0.0728841 0
-0.0382472 0.0729884 0
-0.0328759 0.06918 0
-0.036 0.0723857 0
-0.0342506 0.0714833 0
-0.0262713 0.0699767 0
-0.0305409 0.0706773 0
-0.0299977 0.00313114 0
-0.0259959 0.00308577 0
-0.0490513 0.00918833 0
-0.0758074 0.0176595 0
-0.0669401 0.0174381 0
-0.0791345 0.0268814 0
-0.0949031 0.0365107 0
-0.085612 0.0364948 0
-0.0864523 0.0453098 0
-0.0890322 0.0513285 0
-0.0827264 0.0526927 0
-0.0752678 0.0581284 0
-0.0659502 0.0571483 0
-0.0636493 0.0609513 0
-0.0524902 0.0596207 0
-0.0429826 0.0605194 0
-0.0479748 0.0587266 0
-0.0367144 0.0640317 0
-0.0330393 0.0629502 0
-0.0321269 0.0666306 0
-0.0286304 0.0664869 0
-0.0245681 0.062074 0
-0.0243345 0.0666461 0
-0.0382649 0.00317287 0
-0.0341027 0.00318544 0
-0.0631617 0.00945928 0
-0.0937464 0.0178156 0
-0.084757 0.0178415 0
-0.0983756 0.0272412 0
-0.112619 0.0363161 0
-0.103886 0.0364487 0
-0.101563 0.0442799 0
-0.0959278 0.048657 0
-0.0934454 0.0491145 0
-0.0813168 0.0503423 0
-0.0670964 0.0466884 0
-0.067315 0.0514556 0
-0.0483045 0.0563481 0
-0.0444491 0.0552415 0
-0.0421979 0.0589899 0
-0.0379023 0.0587315 0
-0.0333043 0.0547488 0
-0.0334257 0.0583428 0
-0.0285081 0.0583341 0
-0.0233722 0.0541828 0
-0.0238469 0.0582541 0
-0.0424323 0.00311314 0
-0.0775118 0.00928694 0
-0.102714 0.0175041 0
-0.117486 0.0267427 0
-0.12139 0.0358726 0
-0.114686 0.0436284 0
-0.0968011 0.0482461 0
-0.0728956 0.0447111 0
-0.0644007 0.0414913 0
-0.0513479 0.049094 0
-0.0448696 0.0522238 0
-0.0389425 0.0509838 0
-0.0327973 0.0512258 0
-0.0282766 0.0509862 0
-0.0230335 0.0501957 0
-0.0971982 0.00745903 0
-0.143278 0.0212617 0
-0.131978 0.0339278 0
-0.0629563 0.0392196 0
-0.0545234 0.0409117 0
-0.0391868 0.0405091 0
-0.0263712 0.039884 0
-0.107617 0.0060044 0
-0.156796 0.0172327 0
-0.141691 0.0279591 0
-0.0657485 0.0336058 0
-0.0546085 0.0346232 0
-0.038989 0.0344308 0
-0.0256138 0.0337182 0
-0.116086 0.00488295 0
-0.168089 0.0141851 0
-0.150382 0.0234602 0
-0.0673354 0.0285252 0
-0.0550535 0.0291448 0
-0.0385951 0.0286627 0
-0.0251815 0.0282817 0
-0.123099 0.00405289 0
-0.177607 0.0118168 0
-0.157796 0.0196087 0
-0.0679821 0.0239733 0
-0.0552102 0.0242854 0
-0.0383865 0.0237872 0
-0.0245783 0.0232697 0
-0.128975 0.00340181 0
-0.185582 0.00990414 0
-0.163907 0.016394 0
-0.0687677 0.020049 0
-0.0550648 0.020103 0
-0.0379447 0.0196402 0
-0.0240666 0.0191027 0
-0.133917 0.00284976 0
-0.192274 0.00829116 0
-0.168997 0.0137666 0
-0.0689844 0.0166163 0
-0.0548872 0.0165871 0
-0.0374248 0.0160676 0
-0.023518 0.0155901 0
-0.138039 0.0023381 0
-0.19784 0.00676873 0
-0.173198 0.0111842 0
-0.068251 0.0135318 0
-0.0546268 0.0133953 0
-0.037022 0.0128424 0
-0.0230085 0.012337 0
-0.141388 0.00186388 0
-0.202302 0.00534698 0
-0.176438 0.00868249 0
-0.0683812 0.0108042 0
-0.0543186 0.0104068 0
-0.0367222 0.0099967 0
-0.022504 0.00957195 0
-0.144033 0.00144036 0
-0.20581 0.00413592 0
-0.179011 0.00681201 0
-0.0688384 0.0082543 0
-0.0538191 0.00783732 0
-0.0361307 0.00741699 0
-0.0220093 0.00696527 0
-0.146054 0.00105404 0
-0.20849 0.00300297 0
-0.180926 0.0048379 0
-0.0680059 0.00587662 0
-0.0537069 0.0054114 0
-0.0357094 0.00497386 0
-0.0215706 0.00461347 0
-0.147469 0.000679383 0
-0.210331 0.00192502 0
-0.182133 0.00308587 0
-0.0680485 0.00371555 0
-0.0532159 0.00314147 0
-0.0353315 0.00279548 0
-0.0211469 0.00234828 0
-0.0538485 0.00249044 0
-0.0503188 0.00272608 0
-0.0910907 0.00818258 0
-0.127101 0.0140136 0
-0.119604 0.0153862 0
-0.135445 0.0233484 0
-0.144884 0.0281484 0
-0.137807 0.0310289 0
-0.1268 0.0372556 0
-0.104626 0.0374927 0
-0.101605 0.040984 0
-0.0619196 0.0419167 0
-0.0582208 0.04025 0
-0.0559793 0.0437922 0
-0.0528487 0.0449914 0
-0.0453403 0.040816 0
-0.0456849 0.0440026 0
-0.038863 0.0439275 0
-0.0321528 0.040479 0
-0.0325754 0.0439709 0
-0.0269085 0.0435268 0
-0.0210716 0.0397835 0
-0.021344 0.0430695 0
-0.0599097 0.001994 0
-0.057042 0.00220499 0
-0.102651 0.00665797 0
-0.140031 0.0113057 0
-0.133895 0.0125466 0
-0.150401 0.0190461 0
-0.15732 0.0229602 0
-0.151365 0.0253379 0
-0.136974 0.030643 0
-0.11079 0.0315309 0
-0.107668 0.0343434 0
-0.064548 0.0362294 0
-0.058712 0.0343968 0
-0.0584985 0.0373553 0
-0.0539243 0.0379439 0
-0.0456178 0.0347002 0
-0.0452875 0.037715 0
-0.0390317 0.0375677 0
-0.0315585 0.0340749 0
-0.031903 0.037236 0
-0.0259049 0.0368948 0
-0.02026 0.0334643 0
-0.0205668 0.0366067 0
-0.0648174 0.00161607 0
-0.0624907 0.00177282 0
-0.112037 0.00537823 0
-0.15066 0.00924865 0
-0.145598 0.0101878 0
-0.162728 0.0155671 0
-0.167931 0.0190719 0
-0.162817 0.0208919 0
-0.146152 0.0255753 0
-0.116351 0.0266959 0
-0.113635 0.0290374 0
-0.066961 0.0308062 0
-0.0590701 0.0290646 0
-0.0589121 0.031708 0
-0.054645 0.0320277 0
-0.045426 0.0290732 0
-0.0456877 0.0317844 0
-0.0386917 0.0315182 0
-0.0311825 0.0284984 0
-0.0313294 0.031189 0
-0.025396 0.0309431 0
-0.0197039 0.0280369 0
-0.0200023 0.0306736 0
-0.0688647 0.00134103 0
-0.0669363 0.00145958 0
-0.119729 0.00443754 0
-0.159517 0.00769516 0
-0.155292 0.00842638 0
-0.173097 0.0129197 0
-0.176942 0.0159149 0
-0.172623 0.0174155 0
-0.154223 0.0214294 0
-0.121051 0.0222995 0
-0.118748 0.0244636 0
-0.067944 0.0259863 0
-0.0593085 0.0243209 0
-0.0591964 0.0266153 0
-0.0548944 0.0267877 0
-0.0451328 0.0241835 0
-0.0453398 0.0265 0
-0.0384473 0.0262409 0
-0.0308106 0.0235429 0
-0.0310418 0.0259608 0
-0.0248645 0.0256939 0
-0.0191695 0.0230185 0
-0.0194074 0.025416 0
-0.072257 0.0011267 0
-0.0706363 0.00122177 0
-0.126142 0.00371504 0
-0.166938 0.0064564 0
-0.163397 0.00704953 0