<?xml version="1.0"?>
<VTKFile type="UnstructuredGrid">
  <UnstructuredGrid>
  <Piece NumberOfPoints="3321"  NumberOfCells="1600">
    <Points>
      <DataArray type="Float64" NumberOfComponents="3" format="ascii">
0 0 0.1
1 0 0.1
1 0.5 0.1
0 0.5 0.1
0.025 0 0.1
0.05 0 0.1
0.075 0 0.1
0.1 0 0.1
0.125 0 0.1
0.15 0 0.1
0.175 0 0.1
0.2 0 0.1
0.225 0 0.1
0.25 0 0.1
0.275 0 0.1
0.3 0 0.1
0.325 0 0.1
0.35 0 0.1
0.375 0 0.1
0.4 0 0.1
0.425 0 0.1
0.45 0 0.1
0.475 0 0.1
0.5 0 0.1
0.525 0 0.1
0.55 0 0.1
0.575 0 0.1
0.6 0 0.1
0.625 0 0.1
0.65 0 0.1
0.675 0 0.1
0.7 0 0.1
0.725 0 0.1
0.75 0 0.1
0.775 0 0.1
0.8 0 0.1
0.825 0 0.1
0.85 0 0.1
0.875 0 0.1
0.9 0 0.1
0.925 0 0.1
0.95 0 0.1
0.975 0 0.1
0.0125 0 0.1
0.0375 0 0.1
0.0625 0 0.1
0.0875 0 0.1
0.1125 0 0.1
0.1375 0 0.1
0.1625 0 0.1
0.1875 0 0.1
0.2125 0 0.1
0.2375 0 0.1
0.2625 0 0.1
0.2875 0 0.1
0.3125 0 0.1
0.3375 0 0.1
0.3625 0 0.1
0.3875 0 0.1
0.4125 0 0.1
0.4375 0 0.1
0.4625 0 0.1
0.4875 0 0.1
0.5125 0 0.1
0.5375 0 0.1
0.5625 0 0.1
0.5875 0 0.1
0.6125 0 0.1
0.6375 0 0.1
0.6625 0 0.1
0.6875 0 0.1
0.7125 0 0.1
0.7375 0 0.1
0.7625 0 0.1
0.7875 0 0.1
0.8125 0 0.1
0.8375 0 0.1
0.8625 0 0.1
0.8875 0 0.1
0.9125 0 0.1
0.9375 0 0.1
0.9625 0 0.1
0.9875 0 0.1
1 0.025 0.1
1 0.05 0.1
1 0.075 0.1
1 0.1 0.1
1 0.125 0.1
1 0.15 0.1
1 0.175 0.1
1 0.2 0.1
1 0.225 0.1
1 0.25 0.1
1 0.275 0.1
1 0.3 0.1
1 0.325 0.1
1 0.35 0.1
1 0.375 0.1
1 0.4 0.1
1 0.425 0.1
1 0.45 0.1
1 0.475 0.1
1 0.0125 0.1
1 0.0375 0.1
1 0.0625 0.1
1 0.0875 0.1
1 0.1125 0.1
1 0.1375 0.1
1 0.1625 0.1
1 0.1875 0.1
1 0.2125 0.1
1 0.2375 0.1
1 0.2625 0.1
1 0.2875 0.1
1 0.3125 0.1
1 0.3375 0.1
1 0.3625 0.1
1 0.3875 0.1
1 0.4125 0.1
1 0.4375 0.1
1 0.4625 0.1
1 0.4875 0.1
0.975 0.5 0.1
0.95 0.5 0.1
0.925 0.5 0.1
0.9 0.5 0.1
0.875 0.5 0.1
0.85 0.5 0.1
0.825 0.5 0.1
0.8 0.5 0.1
0.775 0.5 0.1
0.75 0.5 0.1
0.725 0.5 0.1
0.7 0.5 0.1
0.675 0.5 0.1
0.65 0.5 0.1
0.625 0.5 0.1
0.6 0.5 0.1
0.575 0.5 0.1
0.55 0.5 0.1
0.525 0.5 0.1
0.5 0.5 0.1
0.475 0.5 0.1
0.45 0.5 0.1
0.425 0.5 0.1
0.4 0.5 0.1
0.375 0.5 0.1
0.35 0.5 0.1
0.325 0.5 0.1
0.3 0.5 0.1
0.275 0.5 0.1
0.25 0.5 0.1
0.225 0.5 0.1
0.2 0.5 0.1
0.175 0.5 0.1
0.15 0.5 0.1
0.125 0.5 0.1
0.1 0.5 0.1
0.075 0.5 0.1
0.05 0.5 0.1
0.025 0.5 0.1
0.9875 0.5 0.1
0.9625 0.5 0.1
0.9375 0.5 0.1
0.9125 0.5 0.1
0.8875 0.5 0.1
0.8625 0.5 0.1
0.8375 0.5 0.1
0.8125 0.5 0.1
0.7875 0.5 0.1
0.7625 0.5 0.1
0.7375 0.5 0.1
0.7125 0.5 0.1
0.6875 0.5 0.1
0.6625 0.5 0.1
0.6375 0.5 0.1
0.6125 0.5 0.1
0.5875 0.5 0.1
0.5625 0.5 0.1
0.5375 0.5 0.1
0.5125 0.5 0.1
0.4875 0.5 0.1
0.4625 0.5 0.1
0.4375 0.5 0.1
0.4125 0.5 0.1
0.3875 0.5 0.1
0.3625 0.5 0.1
0.3375 0.5 0.1
0.3125 0.5 0.1
0.2875 0.5 0.1
0.2625 0.5 0.1
0.2375 0.5 0.1
0.2125 0.5 0.1
0.1875 0.5 0.1
0.1625 0.5 0.1
0.1375 0.5 0.1
0.1125 0.5 0.1
0.0875 0.5 0.1
0.0625 0.5 0.1
0.0375 0.5 0.1
0.0125 0.5 0.1
0 0.475 0.1
0 0.45 0.1
0 0.425 0.1
0 0.4 0.1
0 0.375 0.1
0 0.35 0.1
0 0.325 0.1
0 0.3 0.1
0 0.275 0.1
0 0.25 0.1
0 0.225 0.1
0 0.2 0.1
0 0.175 0.1
0 0.15 0.1
0 0.125 0.1
0 0.1 0.1
0 0.075 0.1
0 0.05 0.1
0 0.025 0.1
0 0.4875 0.1
0 0.4625 0.1
0 0.4375 0.1
0 0.4125 0.1
0 0.3875 0.1
0 0.3625 0.1
0 0.3375 0.1
0 0.3125 0.1
0 0.2875 0.1
0 0.2625 0.1
0 0.2375 0.1
0 0.2125 0.1
0 0.1875 0.1
0 0.1625 0.1
0 0.1375 0.1
0 0.1125 0.1
0 0.0875 0.1
0 0.0625 0.1
0 0.0375 0.1
0 0.0125 0.1
0.975 0.475 0.1
0.975 0.45 0.1
0.975 0.425 0.1
0.975 0.4 0.1
0.975 0.375 0.1
0.975 0.35 0.1
0.975 0.325 0.1
0.975 0.3 0.1
0.975 0.275 0.1
0.975 0.25 0.1
0.975 0.225 0.1
0.975 0.2 0.1
0.975 0.175 0.1
0.975 0.15 0.1
0.975 0.125 0.1
0.975 0.1 0.1
0.975 0.075 0.1
0.975 0.05 0.1
0.975 0.025 0.1
0.95 0.475 0.1
0.95 0.45 0.1
0.95 0.425 0.1
0.95 0.4 0.1
0.95 0.375 0.1
0.95 0.35 0.1
0.95 0.325 0.1
0.95 0.3 0.1
0.95 0.275 0.1
0.95 0.25 0.1
0.95 0.225 0.1
0.95 0.2 0.1
0.95 0.175 0.1
0.95 0.15 0.1
0.95 0.125 0.1
0.95 0.1 0.1
0.95 0.075 0.1
0.95 0.05 0.1
0.95 0.025 0.1
0.925 0.475 0.1
0.925 0.45 0.1
0.925 0.425 0.1
0.925 0.4 0.1
0.925 0.375 0.1
0.925 0.35 0.1
0.925 0.325 0.1
0.925 0.3 0.1
0.925 0.275 0.1
0.925 0.25 0.1
0.925 0.225 0.1
0.925 0.2 0.1
0.925 0.175 0.1
0.925 0.15 0.1
0.925 0.125 0.1
0.925 0.1 0.1
0.925 0.075 0.1
0.925 0.05 0.1
0.925 0.025 0.1
0.9 0.475 0.1
0.9 0.45 0.1
0.9 0.425 0.1
0.9 0.4 0.1
0.9 0.375 0.1
0.9 0.35 0.1
0.9 0.325 0.1
0.9 0.3 0.1
0.9 0.275 0.1
0.9 0.25 0.1
0.9 0.225 0.1
0.9 0.2 0.1
0.9 0.175 0.1
0.9 0.15 0.1
0.9 0.125 0.1
0.9 0.1 0.1
0.9 0.075 0.1
0.9 0.05 0.1
0.9 0.025 0.1
0.875 0.475 0.1
0.875 0.45 0.1
0.875 0.425 0.1
0.875 0.4 0.1
0.875 0.375 0.1
0.875 0.35 0.1
0.875 0.325 0.1
0.875 0.3 0.1
0.875 0.275 0.1
0.875 0.25 0.1
0.875 0.225 0.1
0.875 0.2 0.1
0.875 0.175 0.1
0.875 0.15 0.1
0.875 0.125 0.1
0.875 0.1 0.1
0.875 0.075 0.1
0.875 0.05 0.1
0.875 0.025 0.1
0.85 0.475 0.1
0.85 0.45 0.1
0.85 0.425 0.1
0.85 0.4 0.1
0.85 0.375 0.1
0.85 0.35 0.1
0.85 0.325 0.1
0.85 0.3 0.1
0.85 0.275 0.1
0.85 0.25 0.1
0.85 0.225 0.1
0.85 0.2 0.1
0.85 0.175 0.1
0.85 0.15 0.1
0.85 0.125 0.1
0.85 0.1 0.1
0.85 0.075 0.1
0.85 0.05 0.1
0.85 0.025 0.1
0.825 0.475 0.1
0.825 0.45 0.1
0.825 0.425 0.1
0.825 0.4 0.1
0.825 0.375 0.1
0.825 0.35 0.1
0.825 0.325 0.1
0.825 0.3 0.1
0.825 0.275 0.1
0.825 0.25 0.1
0.825 0.225 0.1
0.825 0.2 0.1
0.825 0.175 0.1
0.825 0.15 0.1
0.825 0.125 0.1
0.825 0.1 0.1
0.825 0.075 0.1
0.825 0.05 0.1
0.825 0.025 0.1
0.8 0.475 0.1
0.8 0.45 0.1
0.8 0.425 0.1
0.8 0.4 0.1
0.8 0.375 0.1
0.8 0.35 0.1
0.8 0.325 0.1
0.8 0.3 0.1
0.8 0.275 0.1
0.8 0.25 0.1
0.8 0.225 0.1
0.8 0.2 0.1
0.8 0.175 0.1
0.8 0.15 0.1
0.8 0.125 0.1
0.8 0.1 0.1
0.8 0.075 0.1
0.8 0.05 0.1
0.8 0.025 0.1
0.775 0.475 0.1
0.775 0.45 0.1
0.775 0.425 0.1
0.775 0.4 0.1
0.775 0.375 0.1
0.775 0.35 0.1
0.775 0.325 0.1
0.775 0.3 0.1
0.775 0.275 0.1
0.775 0.25 0.1
0.775 0.225 0.1
0.775 0.2 0.1
0.775 0.175 0.1
0.775 0.15 0.1
0.775 0.125 0.1
0.775 0.1 0.1
0.775 0.075 0.1
0.775 0.05 0.1
0.775 0.025 0.1
0.75 0.475 0.1
0.75 0.45 0.1
0.75 0.425 0.1
0.75 0.4 0.1
0.75 0.375 0.1
0.75 0.35 0.1
0.75 0.325 0.1
0.75 0.3 0.1
0.75 0.275 0.1
0.75 0.25 0.1
0.75 0.225 0.1
0.75 0.2 0.1
0.75 0.175 0.1
0.75 0.15 0.1
0.75 0.125 0.1
0.75 0.1 0.1
0.75 0.075 0.1
0.75 0.05 0.1
0.75 0.025 0.1
0.725 0.475 0.1
0.725 0.45 0.1
0.725 0.425 0.1
0.725 0.4 0.1
0.725 0.375 0.1
0.725 0.35 0.1
0.725 0.325 0.1
0.725 0.3 0.1
0.725 0.275 0.1
0.725 0.25 0.1
0.725 0.225 0.1
0.725 0.2 0.1
0.725 0.175 0.1
0.725 0.15 0.1
0.725 0.125 0.1
0.725 0.1 0.1
0.725 0.075 0.1
0.725 0.05 0.1
0.725 0.025 0.1
0.7 0.475 0.1
0.7 0.45 0.1
0.7 0.425 0.1
0.7 0.4 0.1
0.7 0.375 0.1
0.7 0.35 0.1
0.7 0.325 0.1
0.7 0.3 0.1
0.7 0.275 0.1
0.7 0.25 0.1
0.7 0.225 0.1
0.7 0.2 0.1
0.7 0.175 0.1
0.7 0.15 0.1
0.7 0.125 0.1
0.7 0.1 0.1
0.7 0.075 0.1
0.7 0.05 0.1
0.7 0.025 0.1
0.675 0.475 0.1
0.675 0.45 0.1
0.675 0.425 0.1
0.675 0.4 0.1
0.675 0.375 0.1
0.675 0.35 0.1
0.675 0.325 0.1
0.675 0.3 0.1
0.675 0.275 0.1
0.675 0.25 0.1
0.675 0.225 0.1
0.675 0.2 0.1
0.675 0.175 0.1
0.675 0.15 0.1
0.675 0.125 0.1
0.675 0.1 0.1
0.675 0.075 0.1
0.675 0.05 0.1
0.675 0.025 0.1
0.65 0.475 0.1
0.65 0.45 0.1
0.65 0.425 0.1
0.65 0.4 0.1
0.65 0.375 0.1
0.65 0.35 0.1
0.65 0.325 0.1
0.65 0.3 0.1
0.65 0.275 0.1
0.65 0.25 0.1
0.65 0.225 0.1
0.65 0.2 0.1
0.65 0.175 0.1
0.65 0.15 0.1
0.65 0.125 0.1
0.65 0.1 0.1
0.65 0.075 0.1
0.65 0.05 0.1
0.65 0.025 0.1
0.625 0.475 0.1
0.625 0.45 0.1
0.625 0.425 0.1
0.625 0.4 0.1
0.625 0.375 0.1
0.625 0.35 0.1
0.625 0.325 0.1
0.625 0.3 0.1
0.625 0.275 0.1
0.625 0.25 0.1
0.625 0.225 0.1
0.625 0.2 0.1
0.625 0.175 0.1
0.625 0.15 0.1
0.625 0.125 0.1
0.625 0.1 0.1
0.625 0.075 0.1
0.625 0.05 0.1
0.625 0.025 0.1
0.6 0.475 0.1
0.6 0.45 0.1
0.6 0.425 0.1
0.6 0.4 0.1
0.6 0.375 0.1
0.6 0.35 0.1
0.6 0.325 0.1
0.6 0.3 0.1
0.6 0.275 0.1
0.6 0.25 0.1
0.6 0.225 0.1
0.6 0.2 0.1
0.6 0.175 0.1
0.6 0.15 0.1
0.6 0.125 0.1
0.6 0.1 0.1
0.6 0.075 0.1
0.6 0.05 0.1
0.6 0.025 0.1
0.575 0.475 0.1
0.575 0.45 0.1
0.575 0.425 0.1
0.575 0.4 0.1
0.575 0.375 0.1
0.575 0.35 0.1
0.575 0.325 0.1
0.575 0.3 0.1
0.575 0.275 0.1
0.575 0.25 0.1
0.575 0.225 0.1
0.575 0.2 0.1
0.575 0.175 0.1
0.575 0.15 0.1
0.575 0.125 0.1
0.575 0.1 0.1
0.575 0.075 0.1
0.575 0.05 0.1
0.575 0.025 0.1
0.55 0.475 0.1
0.55 0.45 0.1
0.55 0.425 0.1
0.55 0.4 0.1
0.55 0.375 0.1
0.55 0.35 0.1
0.55 0.325 0.1
0.55 0.3 0.1
0.55 0.275 0.1
0.55 0.25 0.1
0.55 0.225 0.1
0.55 0.2 0.1
0.55 0.175 0.1
0.55 0.15 0.1
0.55 0.125 0.1
0.55 0.1 0.1
0.55 0.075 0.1
0.55 0.05 0.1
0.55 0.025 0.1
0.525 0.475 0.1
0.525 0.45 0.1
0.525 0.425 0.1
0.525 0.4 0.1
0.525 0.375 0.1
0.525 0.35 0.1
0.525 0.325 0.1
0.525 0.3 0.1
0.525 0.275 0.1
0.525 0.25 0.1
0.525 0.225 0.1
0.525 0.2 0.1
0.525 0.175 0.1
0.525 0.15 0.1
0.525 0.125 0.1
0.525 0.1 0.1
0.525 0.075 0.1
0.525 0.05 0.1
0.525 0.025 0.1
0.5 0.475 0.1
0.5 0.45 0.1
0.5 0.425 0.1
0.5 0.4 0.1
0.5 0.375 0.1
0.5 0.35 0.1
0.5 0.325 0.1
0.5 0.3 0.1
0.5 0.275 0.1
0.5 0.25 0.1
0.5 0.225 0.1
0.5 0.2 0.1
0.5 0.175 0.1
0.5 0.15 0.1
0.5 0.125 0.1
0.5 0.1 0.1
0.5 0.075 0.1
0.5 0.05 0.1
0.5 0.025 0.1
0.475 0.475 0.1
0.475 0.45 0.1
0.475 0.425 0.1
0.475 0.4 0.1
0.475 0.375 0.1
0.475 0.35 0.1
0.475 0.325 0.1
0.475 0.3 0.1
0.475 0.275 0.1
0.475 0.25 0.1
0.475 0.225 0.1
0.475 0.2 0.1
0.475 0.175 0.1
0.475 0.15 0.1
0.475 0.125 0.1
0.475 0.1 0.1
0.475 0.075 0.1
0.475 0.05 0.1
0.475 0.025 0.1
0.45 0.475 0.1
0.45 0.45 0.1
0.45 0.425 0.1
0.45 0.4 0.1
0.45 0.375 0.1
0.45 0.35 0.1
0.45 0.325 0.1
0.45 0.3 0.1
0.45 0.275 0.1
0.45 0.25 0.1
0.45 0.225 0.1
0.45 0.2 0.1
0.45 0.175 0.1
0.45 0.15 0.1
0.45 0.125 0.1
0.45 0.1 0.1
0.45 0.075 0.1
0.45 0.05 0.1
0.45 0.025 0.1
0.425 0.475 0.1
0.425 0.45 0.1
0.425 0.425 0.1
0.425 0.4 0.1
0.425 0.375 0.1
0.425 0.35 0.1
0.425 0.325 0.1
0.425 0.3 0.1
0.425 0.275 0.1
0.425 0.25 0.1
0.425 0.225 0.1
0.425 0.2 0.1
0.425 0.175 0.1
0.425 0.15 0.1
0.425 0.125 0.1
0.425 0.1 0.1
0.425 0.075 0.1
0.425 0.05 0.1
0.425 0.025 0.1
0.4 0.475 0.1
0.4 0.45 0.1
0.4 0.425 0.1
0.4 0.4 0.1
0.4 0.375 0.1
0.4 0.35 0.1
0.4 0.325 0.1
0.4 0.3 0.1
0.4 0.275 0.1
0.4 0.25 0.1
0.4 0.225 0.1
0.4 0.2 0.1
0.4 0.175 0.1
0.4 0.15 0.1
0.4 0.125 0.1
0.4 0.1 0.1
0.4 0.075 0.1
0.4 0.05 0.1
0.4 0.025 0.1
0.375 0.475 0.1
0.375 0.45 0.1
0.375 0.425 0.1
0.375 0.4 0.1
0.375 0.375 0.1
[...]
    <PointData>
      <DataArray type="Float64" NumberOfComponents="3" Name="Velocity" format="ascii">
0 0 0
0 0 0
0 0 0
0 0 0
0 0 0
0 0 0
0 0 0
0 0 0
0 0 0
0 0 0
0 0 0
0 0 0
0 0 0
0 0 0
0 0 0
0 0 0
0 0 0
0 0 0
0 0 0
0 0 0
0 0 0
0 0 0
0 0 0
0 0 0
0 0 0
0 0 0
0 0 0
0 0 0
0 0 0
0 0 0
0 0 0
0 0 0
0 0 0
0 0 0
0 0 0
0 0 0
0 0 0
0 0 0
0 0 0
0 0 0
0 0 0
0 0 0
0 0 0
0 0 0
0 0 0
0 0 0
0 0 0
0 0 0
0 0 0
0 0 0
0 0 0
0 0 0
0 0 0
0 0 0
0 0 0
0 0 0
0 0 0
0 0 0
0 0 0
0 0 0
0 0 0
0 0 0
0 0 0
0 0 0
0 0 0
0 0 0
0 0 0
0 0 0
0 0 0
0 0 0
0 0 0
0 0 0
0 0 0
0 0 0
0 0 0
0 0 0
0 0 0
0 0 0
0 0 0
0 0 0
0 0 0
0 0 0
0 0 0
0 0 0
0 0 0
0 0 0
0 0 0
0 0 0
0 0 0
0 0 0
0 0 0
0 0 0
0 0 0
0 0 0
0 0 0
0 0 0
0 0 0
0 0 0
0 0 0
0 0 0
0 0 0
0 0 0
0 0 0
0 0 0
0 0 0
0 0 0
0 0 0
0 0 0
0 0 0
0 0 0
0 0 0
0 0 0
0 0 0
0 0 0
0 0 0
0 0 0
0 0 0
0 0 0
0 0 0
0 0 0
0 0 0
0 0 0
-0.00227649 -0.0286236 0
-0.00741572 -0.0520866 0
-0.015223 -0.0702498 0
-0.0241343 -0.0841321 0
-0.0339761 -0.0939782 0
-0.0446033 -0.0998109 0
-0.0551257 -0.102432 0
-0.0653549 -0.102013 0
-0.0750938 -0.0990011 0
-0.0839806 -0.0940903 0
-0.0920398 -0.0873228 0
-0.099184 -0.0793705 0
-0.105142 -0.0704534 0
-0.110154 -0.0607062 0
-0.114254 -0.0506764 0
-0.117381 -0.0402767 0
-0.119644 -0.0297906 0
-0.121011 -0.0191977 0
-0.121609 -0.00862743 0
-0.121424 0.00189666 0
-0.120526 0.0123626 0
-0.118892 0.0227294 0
-0.116503 0.0328924 0
-0.113352 0.0428261 0
-0.109443 0.0524366 0
-0.104721 0.0616906 0
-0.0992276 0.0705145 0
-0.0929213 0.0785519 0
-0.0856891 0.0856233 0
-0.0776362 0.0914712 0
-0.0689299 0.0957987 0
-0.0598035 0.0985025 0
-0.0505075 0.098711 0
-0.0408215 0.0960025 0
-0.0311366 0.090316 0
-0.0223683 0.0803092 0
-0.0138653 0.0660963 0
-0.00662815 0.0478617 0
-0.00191994 0.024986 0
-0.00104572 -0.014222 0
-0.00449553 -0.0409847 0
-0.0111749 -0.0617682 0
-0.0196185 -0.0777627 0
-0.028995 -0.0896424 0
-0.0393383 -0.0974746 0
-0.0499638 -0.101665 0
-0.0603598 -0.102767 0
-0.0703827 -0.100968 0
-0.0797091 -0.0969785 0
-0.0881753 -0.0910994 0
-0.0957946 -0.0836627 0
-0.102352 -0.0752254 0
-0.107787 -0.0657863 0
-0.112364 -0.0558792 0
-0.115954 -0.0456404 0
-0.118648 -0.0351398 0
-0.120443 -0.0245824 0
-0.12142 -0.0139667 0
-0.121612 -0.00339117 0
-0.121065 0.00712533 0
-0.119795 0.0175753 0
-0.117775 0.0278784 0
-0.114996 0.037958 0
-0.111463 0.0477622 0
-0.107144 0.0572154 0
-0.10203 0.0663009 0
-0.0961347 0.0747739 0
-0.0893592 0.0823508 0
-0.0816896 0.0888714 0
-0.0733014 0.093961 0
-0.064359 0.0975282 0
-0.0551431 0.0990616 0
-0.0456594 0.0977466 0
-0.0358545 0.0937209 0
-0.0267053 0.0859687 0
-0.0180306 0.0736919 0
-0.00999811 0.0575582 0
-0.00388453 0.0371027 0
-0.001875 0.0116636 0
0 0 0
0 0 0
0 0 0
0 0 0
0 0 0
0 0 0
0 0 0
0 0 0
0 0 0
0 0 0
0 0 0
0 0 0
0 0 0
0 0 0
0 0 0
0 0 0
0 0 0
0 0 0
0 0 0
0 0 0
0 0 0
0 0 0
0 0 0
0 0 0
0 0 0
0 0 0
0 0 0
0 0 0
0 0 0
0 0 0
0 0 0
0 0 0
0 0 0
0 0 0
0 0 0
0 0 0
0 0 0
0 0 0
0 0 0
-0.00317403 -0.0242295 0
-0.00288002 -0.020535 0
-0.00224326 -0.0171243 0
-0.00165615 -0.0145581 0
-0.00114799 -0.01279 0
-0.000952981 -0.0112513 0
-0.000856128 -0.00984041 0
-0.000793772 -0.0085272 0
-0.000746186 -0.00729452 0
-0.000704694 -0.00613118 0
-0.000663645 -0.00503246 0
-0.000618477 -0.00400034 0
-0.000565052 -0.00304339 0
-0.000499385 -0.0021766 0
-0.000417861 -0.0014212 0
-0.000318293 -0.00080346 0
-0.000202695 -0.000351165 0
-8.29598e-05 -8.51213e-05 0
1.09942e-05 2.87853e-06 0
-0.00743334 -0.0439874 0
-0.00703201 -0.0379112 0
-0.00610961 -0.032598 0
-0.00497233 -0.0282637 0
-0.00386514 -0.0248155 0
-0.00327933 -0.0216962 0
-0.00293658 -0.0189064 0
-0.00270491 -0.0163687 0
-0.00252894 -0.0140224 0
-0.00237909 -0.0118305 0
-0.00223535 -0.00977544 0
-0.00208198 -0.00785514 0
-0.00190522 -0.00608021 0
-0.00169238 -0.0044725 0
-0.00143249 -0.00306342 0
-0.0011195 -0.00189094 0
-0.000759503 -0.000993184 0
-0.000384651 -0.000395904 0
-7.81323e-05 -9.01312e-05 0
-0.0136494 -0.0598944 0
-0.0125418 -0.0519929 0
-0.0112184 -0.0453797 0
-0.00953641 -0.03994 0
-0.00799577 -0.0352366 0
-0.00691729 -0.030833 0
-0.00618447 -0.0268634 0
-0.0056656 -0.0232673 0
-0.00527071 -0.0199637 0
-0.00493947 -0.0168957 0
-0.004629 -0.0140329 0
-0.00430622 -0.0113667 0
-0.00394323 -0.00890529 0
-0.00351548 -0.0066716 0
-0.00300284 -0.00469983 0
-0.00239507 -0.00303165 0
-0.00170332 -0.00170936 0
-0.00097968 -0.000764956 0
-0.000345317 -0.000205425 0
-0.021428 -0.0723055 0
-0.0193607 -0.0632548 0
-0.017336 -0.055654 0
-0.0151784 -0.0492414 0
-0.0132435 -0.0435789 0
-0.0116208 -0.0382507 0
-0.0104111 -0.0333942 0
-0.00951817 -0.0289693 0
-0.00882856 -0.0249016 0
-0.00825099 -0.0211305 0
-0.00771651 -0.0176193 0
-0.00717139 -0.014354 0
-0.00657105 -0.0113394 0
-0.00587719 -0.00859632 0
-0.00505929 -0.00615819 0
-0.00410166 -0.00406748 0
-0.00301752 -0.00237017 0
-0.00187026 -0.00110861 0
-0.000797411 -0.000313853 0
-0.0301777 -0.0811221 0
-0.027096 -0.0714173 0
-0.0243501 -0.0631724 0
-0.021705 -0.0560103 0
-0.0192525 -0.0497342 0
-0.0170736 -0.0438146 0
-0.0153649 -0.0383563 0
-0.0140561 -0.0333419 0
-0.013023 -0.0287147 0
-0.0121515 -0.0244208 0
-0.011349 -0.0204239 0
-0.0105414 -0.0167075 0
-0.00966652 -0.0132734 0
-0.00867147 -0.0101396 0
-0.00751392 -0.00733788 0
-0.00617017 -0.0049111 0
-0.0046501 -0.00290972 0
-0.00301758 -0.00138818 0
-0.00140806 -0.000401472 0
-0.0394505 -0.0865351 0
-0.0353572 -0.0765524 0
-0.0319399 -0.0680039 0
-0.0287964 -0.0604814 0
-0.0257207 -0.0538616 0
-0.0230024 -0.0475883 0
-0.0208043 -0.0417615 0
-0.0190683 -0.0363734 0
-0.0176676 -0.0313807 0
-0.0164734 -0.0267384 0
-0.0153744 -0.0224133 0
-0.0142779 -0.0183889 0
-0.0131049 -0.0146652 0
-0.0117873 -0.0112579 0
-0.0102697 -0.00819761 0
-0.00851705 -0.00552771 0
-0.00653028 -0.00330356 0
-0.00436429 -0.00159098 0
-0.00213965 -0.000464494 0
-0.0488611 -0.0890377 0
-0.0438224 -0.0790671 0
-0.0397739 -0.0704696 0
-0.0361329 -0.062893 0
-0.0324472 -0.0561455 0
-0.0291984 -0.0497088 0
-0.026522 -0.043707 0
-0.0243612 -0.038133 0
-0.0225861 -0.0329499 0
-0.0210569 -0.0281193 0
-0.0196473 -0.0236123 0
-0.0182485 -0.0194135 0
-0.0167656 -0.0155223 0
-0.0151155 -0.0119534 0
-0.0132279 -0.00873638 0
-0.0110541 -0.00591592 0
-0.00858107 -0.00355161 0
-0.00584792 -0.00171819 0
-0.00295286 -0.000503825 0
-0.0580968 -0.088858 0
-0.0522122 -0.0791474 0
-0.0475745 -0.0707562 0
-0.0434455 -0.0633746 0
-0.0392282 -0.0567283 0
-0.0354718 -0.0503287 0
-0.0323355 -0.0443292 0
-0.0297631 -0.0387347 0
-0.0276198 -0.0335155 0
-0.0257565 -0.0286395 0
-0.0240345 -0.024082 0
-0.0223309 -0.0198297 0
-0.0205364 -0.0158826 0
-0.0185525 -0.0122552 0
-0.0162939 -0.00897671 0
-0.0136956 -0.0060928 0
-0.0107274 -0.00366616 0
-0.00740853 -0.0017773 0
-0.00381129 -0.000522196 0
-0.0669065 -0.086467 0
-0.0602973 -0.0772377 0
-0.0551106 -0.069246 0
-0.0505279 -0.0622022 0
-0.0458593 -0.0558194 0
-0.0416459 -0.0496261 0
-0.0380834 -0.043785 0
-0.0351239 -0.0383135 0
-0.0326296 -0.0331918 0
-0.0304437 -0.0283945 0
-0.0284173 -0.0239018 0
-0.0264154 -0.0197032 0
-0.0243153 -0.0157998 0
-0.0220041 -0.0122064 0
-0.0193806 -0.0089523 0
-0.0163626 -0.0060836 0
-0.0129007 -0.00366448 0
-0.00899241 -0.00177796 0
-0.0046833 -0.000522807 0
-0.0751167 -0.0823459 0
-0.0678939 -0.0737488 0
-0.0622495 -0.0662861 0
-0.0572772 -0.0596635 0
-0.0521956 -0.0536531 0
-0.047575 -0.0477946 0
-0.0436293 -0.0422387 0
-0.0403162 -0.0370103 0
-0.0374962 -0.0320988 0
-0.0350072 -0.0274862 0
-0.032692 -0.0231575 0
-0.0304054 -0.0191054 0
-0.0280124 -0.0153327 0
-0.0253864 -0.0118545 0
-0.0224106 -0.00870027 0
-0.0189852 -0.00591569 0
-0.0150409 -0.00356471 0
-0.0105534 -0.00172991 0
-0.00554238 -0.000508818 0
-0.0825647 -0.0766649 0
-0.0748678 -0.0688724 0
-0.0688848 -0.0620412 0
-0.0635756 -0.0559647 0
-0.0581157 -0.0504426 0
-0.0531422 -0.0450209 0
-0.0488618 -0.0398496 0
-0.045234 -0.0349613 0
-0.0421196 -0.0303533 0
-0.0393527 -0.026014 0
-0.03677 -0.0219333 0
-0.0342174 -0.0181069 0
-0.0315494 -0.0145394 0
-0.0286265 -0.0112463 0
-0.0253166 -0.00825673 0
-0.0215028 -0.00561522 0
-0.0170968 -0.00338376 0
-0.0120529 -0.00164195 0
-0.00636687 -0.000482981 0
-0.0891534 -0.0698407 0
-0.0811359 -0.0628978 0
-0.0749124 -0.0567895 0
-0.0693077 -0.0513548 0
-0.0635302 -0.0463889 0
-0.0582601 -0.0414752 0
-0.0536934 -0.0367642 0
-0.0497919 -0.0322926 0
-0.0464171 -0.0280634 0
-0.0434013 -0.0240703 0
-0.0405763 -0.0203074 0
-0.0377809 -0.0167731 0
-0.0348599 -0.0134737 0
-0.031662 -0.0104248 0
-0.0280412 -0.00765465 0
-0.0238646 -0.00520568 0
-0.0190256 -0.00313645 0
-0.0134591 -0.00152156 0
-0.00713918 -0.00044753 0
-0.0949059 -0.0621442 0
-0.0866625 -0.0560705 0
-0.0802398 -0.0507422 0
-0.0744015 -0.046013 0
-0.0683789 -0.0416548 0
-0.0628635 -0.0373038 0
-0.0580561 -0.0331115 0
-0.0539214 -0.0291168 0
-0.0503219 -0.0253265 0
-0.0470884 -0.0217387 0
-0.044049 -0.0183506 0
-0.0410366 -0.0151634 0
-0.0378878 -0.0121841 0
-0.0344407 -0.00942846 0
-0.0305368 -0.00692311 0
-0.0260282 -0.00470749 0
-0.0207922 -0.00283546 0
-0.0147461 -0.00137501 0
-0.00784517 -0.000404323 0
-0.0997361 -0.0536963 0
-0.091389 -0.0486198 0
-0.0848238 -0.0441129 0
-0.0788151 -0.0400945 0
-0.0726111 -0.0363762 0
-0.0669005 -0.032632 0
-0.0618968 -0.0290041 0
-0.057569 -0.025533 0
-0.0537806 -0.0222289 0
-0.0503617 -0.0190931 0
-0.0471375 -0.0161258 0
-0.0439361 -0.0133299 0
-0.0405871 -0.0107132 0
-0.0369196 -0.0082909 0
-0.0327639 -0.00608737 0
-0.0279591 -0.00413826 0
-0.0223682 -0.00249165 0
-0.0158933 -0.00120772 0
-0.00847357 -0.000355008 0
-0.103677 -0.0448589 0
-0.0952686 -0.0407082 0
-0.0886562 -0.0370325 0
-0.0825344 -0.0337355 0
-0.076191 -0.0306773 0
-0.0703315 -0.02757 0
-0.0651749 -0.0245401 0
-0.0606933 -0.0216279 0
-0.0567516 -0.018846 0
-0.0531798 -0.0161986 0
-0.0498012 -0.0136881 0
-0.0464402 -0.0113186 0
-0.0429206 -0.00909843 0
-0.0390638 -0.00704138 0
-0.0346907 -0.00516923 0
-0.0296295 -0.00351306 0
-0.0237309 -0.00211429 0
-0.0168842 -0.00102427 0
-0.00901562 -0.000300964 0
-0.106786 -0.0356983 0
-0.0983445 -0.0324636 0
-0.09172 -0.0295979 0
-0.0855325 -0.027044 0
-0.0790929 -0.0246658 0
-0.0731292 -0.0222143 0
-0.067861 -0.019805 0
-0.0632633 -0.0174767 0
-0.0592032 -0.0152436 0
-0.0555108 -0.013112 0
-0.0520087 -0.0110857 0
-0.0485182 -0.00916987 0
-0.0448587 -0.00737228 0
-0.0408457 -0.00570533 0
-0.0362921 -0.00418754 0
-0.0310174 -0.00284482 0
-0.0248624 -0.00171124 0
-0.0177063 -0.000828544 0
-0.00946463 -0.000243359 0
-0.109061 -0.0263831 0
-0.10063 -0.0240337 0
-0.0940237 -0.0219643 0
-0.0877973 -0.0201369 0
-0.0813049 -0.0184366 0
-0.0752774 -0.0166488 0
-0.0699355 -0.0148731 0
-0.0652574 -0.0131452 0
-0.0611121 -0.0114796 0
-0.057331 -0.00988327 0
-0.0537359 -0.00836131 0
-0.0501465 -0.00691895 0
-0.0463789 -0.00556337 0
-0.042244 -0.00430499 0
-0.0375489 -0.00315867 0
-0.0321062 -0.00214469 0
-0.0257494 -0.0012892 0
-0.0183499 -0.000623752 0
-0.00981568 -0.000183126 0
-0.110533 -0.0169767 0
-0.102153 -0.015498 0
-0.0955811 -0.0142054 0
-0.0893375 -0.0130968 0
-0.0828263 -0.012068 0
-0.0767687 -0.0109447 0
-0.0713869 -0.00980916 0
-0.0666611 -0.00869139 0
-0.0624625 -0.00760486 0
-0.0586235 -0.00655686 0
-0.0549659 -0.00555265 0
-0.0513084 -0.00459736 0
-0.047465 -0.00369713 0
-0.0432434 -0.00286007 0
-0.0384471 -0.0020971 0
-0.0328838 -0.00142245 0
-0.0263821 -0.000853938 0
-0.0188083 -0.00041257 0
-0.0100652 -0.000120973 0
-0.111209 -0.00750924 0
-0.102921 -0.00689109 0
-0.0963928 -0.00638049 0
-0.0901576 -0.00598424 0
-0.083658 -0.00562255 0
-0.0776002 -0.00516311 0
-0.072209 -0.00466975 0
-0.0674664 -0.00416659 0
-0.0632449 -0.00366525 0
-0.0593779 -0.00317264 0
-0.0556877 -0.00269387 0
-0.0519927 -0.00223355 0
-0.048106 -0.00179653 0
-0.0438339 -0.00138841 0
-0.0389775 -0.00101587 0
-0.0333424 -0.000686883 0
-0.0267543 -0.000410684 0
-0.0190771 -0.00019748 0
-0.0102109 -5.7606e-05 0
-0.11114 0.00192055 0
-0.102936 0.00169917 0
-0.0964684 0.00144233 0
-0.0902682 0.00114122 0
-0.0838031 0.000843121 0
-0.0777721 0.000641554 0
-0.0724004 0.000493856 0
-0.0676702 0.000382352 0
-0.0634549 0.000297373 0
-0.0595891 0.000232672 0
-0.0558958 0.000183568 0
-0.0521938 0.000146186 0
-0.0482965 0.000117145 0
-0.04401 9.35126e-05 0
-0.0391354 7.293e-05 0
-0.0334779 5.38278e-05 0
-0.0268629 3.56548e-05 0
-0.0191542 1.90796e-05 0
-0.0102517 6.1746e-06 0
-0.110326 0.0112829 0
-0.102212 0.0102359 0
-0.0958224 0.00922725 0
-0.089675 0.00823111 0
-0.0832649 0.00727489 0
-0.0772875 0.00641708 0
-0.0719633 0.0056332 0
-0.067274 0.00491122 0
-0.0630935 0.0042434 0
-0.0592574 0.0036243 0
-0.05559 0.00304979 0
-0.0519112 0.00251685 0
-0.0480358 0.00202366 0
-0.0437712 0.00156997 0
-0.0389203 0.00115779 0
-0.0332899 0.000791926 0
-0.0267076 0.000480481 0
-0.0190393 0.000234962 0
-0.0101876 6.98107e-05 0
-0.108766 0.0205265 0
-0.10077 0.01866 0
-0.0944618 0.0169082 0
-0.0883786 0.0152213 0
-0.0820493 0.0136153 0
-0.0761534 0.0121113 0
-0.0709046 0.0107006 0
-0.0662839 0.00937664 0
-0.0621662 0.00813402 0
-0.058388 0.00696815 0
-0.054775 0.00587551 0
-0.0511494 0.00485394 0
-0.047328 0.00390314 0
-0.0431214 0.00302555 0
-0.0383356 0.00222743 0
-0.0327814 0.00151983 0
-0.0262909 0.00091935 0
-0.0187344 0.000448132 0
-0.0100197 0.000132763 0
-0.10646 0.0296011 0
-0.0986025 0.0269065 0
-0.0923935 0.0244042 0
-0.0863944 0.0220417 0
-0.0801712 0.0198061 0
-0.0743821 0.0176717 0
-0.0692351 0.0156476 0
-0.0647106 0.0137345 0
-0.0606834 0.0119297 0
-0.056991 0.0102296 0
-0.053461 0.00863102 0
-0.0499179 0.00713261 0
-0.0461823 0.00573548 0
-0.0420689 0.00444462 0
-0.0373889 0.00327038 0
-0.0319591 0.00222981 0
-0.0256182 0.00134767 0
-0.0182434 0.000656387 0
-0.00974995 0.000194376 0
-0.103408 0.0384579 0
-0.0956989 0.0349308 0
-0.0896232 0.0316775 0
-0.0837432 0.0286477 0
-0.0776484 0.025796 0
-0.0719888 0.0230457 0
-0.0669698 0.0204237 0
-0.0625692 0.0179382 0
-0.0586606 0.0155888 0
-0.055082 0.013372 0
-0.0516631 0.0112851 0
-0.0482316 0.00932679 0
-0.0446126 0.00749959 0
-0.0406267 0.00581083 0
-0.036092 0.00427465 0
-0.0308333 0.00291374 0
-0.0246978 0.00176057 0
-0.0175724 0.000857369 0
-0.00938164 0.00025396 0
-0.0996145 0.0470263 0
-0.0920696 0.0426884 0
-0.0861544 0.0386911 0
-0.0804321 0.0349946 0
-0.0744912 0.0315295 0
-0.0689882 0.0281747 0
-0.0641266 0.0249729 0
-0.0598796 0.0219367 0
-0.0561187 0.0190657 0
-0.0526822 0.0163559 0
-0.0494022 0.0138038 0
-0.0461107 0.0114083 0
-0.0426383 0.00917274 0
-0.038813 0.00710652 0
-0.0344613 0.00522728 0
-0.029418 0.00356284 0
-0.0235413 0.00215279 0
-0.0167294 0.00104856 0
-0.00891919 0.000310798 0
-0.0950959 0.0552366 0
-0.0877374 0.0500943 0
-0.0819943 0.0453636 0
-0.0764644 0.0410021 0
-0.0707087 0.0369283 0
-0.0653986 0.0329862 0
-0.0607294 0.02923 0
-0.0566683 0.0256718 0
-0.053085 0.0223094 0
-0.0498189 0.0191369 0
-0.0467054 0.0161496 0
-0.0435814 0.0133459 0
-0.0402844 0.0107297 0
-0.0366509 0.00831212 0
-0.0325178 0.00611388 0
-0.0277316 0.00416734 0
-0.0221634 0.0025185 0
-0.0157252 0.00122718 0
-0.00836835 0.000364095 0
-0.0898164 0.0629734 0
-0.082699 0.0569851 0
-0.0771657 0.0515373 0
-0.0718505 0.0465393 0
-0.0663219 0.0418825 0
-0.0612497 0.0373895 0
-0.0568116 0.0331176 0
-0.0529699 0.0290766 0
-0.0495943 0.0252616 0
-0.0465268 0.0216648 0
-0.0436065 0.0182797 0
-0.0406764 0.015104 0
-0.037582 0.0121417 0
-0.0341696 0.00940534 0
-0.0302879 0.00691803 0
-0.025797 0.00471609 0
-0.0205829 0.00285102 0
-0.0145732 0.00139003 0
-0.00773639 0.000412922 0
-0.0837495 0.0699467 0
-0.0769572 0.06313 0
-0.0717174 0.0569989 0
-0.0666425 0.0514239 0
-0.0613847 0.0462591 0
-0.0565916 0.0412796 0
-0.0524197 0.0365469 0
-0.0488291 0.0320737 0
-0.0456906 0.0278552 0
-0.0428485 0.0238817 0
-0.0401469 0.020145 0
-0.0374356 0.0166418 0
-0.034569 0.0133758 0
-0.0314044 0.0103603 0
-0.0278038 0.00762058 0
-0.0236424 0.00519599 0
-0.0188227 0.0031425 0
-0.0132902 0.0015334 0
-0.00703229 0.000456271 0
-0.0769313 0.0759951 0
-0.0705528 0.0684084 0
-0.0656907 0.0616238 0
-0.0609322 0.0555288 0
-0.055981 0.0499425 0
-0.0514906 0.0445485 0
-0.0476125 0.0394192 0
-0.044302 0.0345754 0
-0.0414279 0.0300131 0
-0.0388365 0.0257212 0
-0.0363771 0.0216892 0
-0.0339071 0.0179121 0
-0.031291 0.0143934 0
-0.028398 0.0111468 0
-0.0251046 0.00819888 0
-0.0213021 0.00559136 0
-0.0169112 0.00338337 0
-0.0118966 0.00165264 0
-0.00626704 0.000492797 0
-0.0694362 0.0809916 0
-0.0635659 0.0727328 0
-0.0591384 0.0653833 0
-0.0547923 0.0588127 0
-0.0501787 0.0528372 0
-0.0460131 0.0470814 0
-0.0424575 0.0416228 0
-0.0394557 0.0364806 0
-0.0368718 0.0316472 0
-0.034554 0.0271073 0
-0.0323574 0.0228473 0
-0.0301483 0.0188607 0
-0.0278021 0.0151501 0
-0.0252011 0.0117294 0
-0.0222367 0.00862609 0
-0.0188173 0.00588329 0
-0.0148824 0.00356184 0
-0.0104175 0.00174184 0
-0.00545428 0.000520686 0
-0.0614093 0.0846807 0
-0.0561865 0.0758816 0
-0.0522063 0.0681435 0
-0.0482457 0.0611497 0
-0.0440164 0.0547894 0
-0.040227 0.0487293 0
-0.0370346 0.0430244 0
-0.034372 0.0376733 0
-0.0321018 0.032657 0
-0.0300766 0.0279537 0
-0.0281595 0.0235463 0
-0.026227 0.0194261 0
-0.0241663 0.0155951 0
-0.0218733 0.0120673 0
-0.0192549 0.00887095 0
-0.0162368 0.00604939 0
-0.0127774 0.00366361 0
-0.00888333 0.00179368 0
-0.00461086 0.000537697 0
-0.0529966 0.0867877 0
-0.0485554 0.0774506 0
-0.0450791 0.0693883 0
-0.0413564 0.0621331 0
-0.0375781 0.0555248 0
-0.0342357 0.0492937 0
-0.0314491 0.0434663 0
-0.0291521 0.0380218 0
-0.0272135 0.0329308 0
-0.0254944 0.0281657 0
-0.0238679 0.0237058 0
-0.0222222 0.0195408 0
-0.0204576 0.0156724 0
-0.018484 0.0121155 0
-0.0162234 0.00889826 0
-0.0136181 0.00606395 0
-0.0106449 0.00367193 0
-0.00733098 0.00179933 0
-0.0037575 0.000541008 0
-0.0443235 0.0865684 0
-0.0407516 0.0768544 0
-0.0378989 0.068558 0
-0.0344223 0.061289 0
-0.0310877 0.0547479 0
-0.0282066 0.0485651 0
-0.0258403 0.0427822 0
-0.0239203 0.0373878 0
-0.0223208 0.032352 0
-0.0209124 0.0276442 0
-0.0195801 0.0232418 0
-0.0182251 0.0191343 0
-0.0167613 0.0153239 0
-0.0151126 0.0118265 0
-0.0132155 0.00867083 0
-0.0110277 0.00589933 0
-0.00854214 0.0035682 0
-0.00580434 0.00174859 0
-0.00291942 0.000527202 0
-0.0356617 0.0838634 0
-0.0329891 0.0741198 0
-0.0308002 0.0657523 0
-0.027762 0.0586049 0
-0.0248016 0.0523283 0
-0.0223301 0.0463849 0
-0.0203674 0.0408228 0
-0.0188185 0.0356404 0
-0.0175535 0.0308082 0
-0.0164504 0.026294 0
-0.015407 0.0220745 0
-0.0143386 0.0181401 0
-0.0131732 0.0144948 0
-0.0118484 0.011156 0
-0.010314 0.00815367 0
-0.00854064 0.00552906 0
-0.00653414 0.00333403 0
-0.00435443 0.0016308 0
-0.00212673 0.000492435 0
-0.0276302 0.078884 0
-0.0256536 0.0697088 0
-0.0238273 0.0614987 0
-0.0213385 0.0543091 0
-0.0188217 0.0482316 0
-0.0167563 0.0426433 0
-0.0151879 0.0374697 0
-0.0139982 0.0326717 0
-0.013053 0.0282063 0
-0.0122397 0.0240366 0
-0.0114706 0.0201391 0
-0.0106761 0.0165058 0
-0.0097984 0.0131433 0
-0.00878862 0.0100715 0
-0.00760839 0.00732164 0
-0.00623817 0.00493397 0
-0.00469212 0.0029554 0
-0.00303804 0.00143705 0
-0.001414 0.000433057 0
-0.0205984 0.0701622 0
-0.0191276 0.0620513 0
-0.0171795 0.0545724 0
-0.0151541 0.0478949 0
-0.0132189 0.0422906 0
-0.0116217 0.0372365 0
-0.0104602 0.0326389 0
-0.00961799 0.0284123 0
-0.0089702 0.0244902 0
-0.00842134 0.0208283 0
-0.00790172 0.0174031 0
-0.0073584 0.0142092 0
-0.00674832 0.0112559 0
-0.00603523 0.0085658 0
-0.00519111 0.00617135 0
-0.00420335 0.00411213 0
-0.00308869 0.00243013 0
-0.00191401 0.00116454 0
-0.000818297 0.000347073 0
-0.0141447 0.0577386 0
-0.013321 0.0508363 0
-0.0113516 0.0445577 0
-0.00966039 0.0390424 0
-0.00821946 0.0343172 0
-0.00711926 0.0300892 0
-0.00636939 0.0263062 0
-0.00585131 0.0228591 0
-0.0054656 0.0196672 0
-0.00514334 0.016684 0
-0.00483677 0.0138885 0
-0.00451056 0.0112783 0
-0.00413616 0.00886575 0
-0.00368929 0.00667456 0
-0.00315099 0.00473766 0
-0.002513 0.00309337 0
-0.00178924 0.00177934 0
-0.00103535 0.000824009 0
-0.000374496 0.000237149 0
-0.0083153 0.0422453 0
-0.00810424 0.0369783 0
-0.00652506 0.0320457 0
-0.00512675 0.0278582 0
-0.00412361 0.0243335 0
-0.0035127 0.0212712 0
-0.00313599 0.0185702 0
-0.00288703 0.0161164 0
-0.00270642 0.0138396 0