<?xml version="1.0"?>
<VTKFile type="UnstructuredGrid">
  <UnstructuredGrid>
  <Piece NumberOfPoints="3321"  NumberOfCells="1600">
    <Points>
      <DataArray type="Float64" NumberOfComponents="3" format="ascii">
0 0 0.1
1 0 0.1
1 0.5 0.1
0 0.5 0.1
0.025 0 0.1
0.05 0 0.1
0.075 0 0.1
0.1 0 0.1
0.125 0 0.1
0.15 0 0.1
0.175 0 0.1
0.2 0 0.1
0.225 0 0.1
0.25 0 0.1
0.275 0 0.1
0.3 0 0.1
0.325 0 0.1
0.35 0 0.1
0.375 0 0.1
0.4 0 0.1
0.425 0 0.1
0.45 0 0.1
0.475 0 0.1
0.5 0 0.1
0.525 0 0.1
0.55 0 0.1
0.575 0 0.1
0.6 0 0.1
0.625 0 0.1
0.65 0 0.1
0.675 0 0.1
0.7 0 0.1
0.725 0 0.1
0.75 0 0.1
0.775 0 0.1
0.8 0 0.1
0.825 0 0.1
0.85 0 0.1
0.875 0 0.1
0.9 0 0.1
0.925 0 0.1
0.95 0 0.1
0.975 0 0.1
0.0125 0 0.1
0.0375 0 0.1
0.0625 0 0.1
0.0875 0 0.1
0.1125 0 0.1
0.1375 0 0.1
0.1625 0 0.1
0.1875 0 0.1
0.2125 0 0.1
0.2375 0 0.1
0.2625 0 0.1
0.2875 0 0.1
0.3125 0 0.1
0.3375 0 0.1
0.3625 0 0.1
0.3875 0 0.1
0.4125 0 0.1
0.4375 0 0.1
0.4625 0 0.1
0.4875 0 0.1
0.5125 0 0.1
0.5375 0 0.1
0.5625 0 0.1
0.5875 0 0.1
0.6125 0 0.1
0.6375 0 0.1
0.6625 0 0.1
0.6875 0 0.1
0.7125 0 0.1
0.7375 0 0.1
0.7625 0 0.1
0.7875 0 0.1
0.8125 0 0.1
0.8375 0 0.1
0.8625 0 0.1
0.8875 0 0.1
0.9125 0 0.1
0.9375 0 0.1
0.9625 0 0.1
0.9875 0 0.1
1 0.025 0.1
1 0.05 0.1
1 0.075 0.1
1 0.1 0.1
1 0.125 0.1
1 0.15 0.1
1 0.175 0.1
1 0.2 0.1
1 0.225 0.1
1 0.25 0.1
1 0.275 0.1
1 0.3 0.1
1 0.325 0.1
1 0.35 0.1
1 0.375 0.1
1 0.4 0.1
1 0.425 0.1
1 0.45 0.1
1 0.475 0.1
1 0.0125 0.1
1 0.0375 0.1
1 0.0625 0.1
1 0.0875 0.1
1 0.1125 0.1
1 0.1375 0.1
1 0.1625 0.1
1 0.1875 0.1
1 0.2125 0.1
1 0.2375 0.1
1 0.2625 0.1
1 0.2875 0.1
1 0.3125 0.1
1 0.3375 0.1
1 0.3625 0.1
1 0.3875 0.1
1 0.4125 0.1
1 0.4375 0.1
1 0.4625 0.1
1 0.4875 0.1
0.975 0.5 0.1
0.95 0.5 0.1
0.925 0.5 0.1
0.9 0.5 0.1
0.875 0.5 0.1
0.85 0.5 0.1
0.825 0.5 0.1
0.8 0.5 0.1
0.775 0.5 0.1
0.75 0.5 0.1
0.725 0.5 0.1
0.7 0.5 0.1
0.675 0.5 0.1
0.65 0.5 0.1
0.625 0.5 0.1
0.6 0.5 0.1
0.575 0.5 0.1
0.55 0.5 0.1
0.525 0.5 0.1
0.5 0.5 0.1
0.475 0.5 0.1
0.45 0.5 0.1
0.425 0.5 0.1
0.4 0.5 0.1
0.375 0.5 0.1
0.35 0.5 0.1
0.325 0.5 0.1
0.3 0.5 0.1
0.275 0.5 0.1
0.25 0.5 0.1
0.225 0.5 0.1
0.2 0.5 0.1
0.175 0.5 0.1
0.15 0.5 0.1
0.125 0.5 0.1
0.1 0.5 0.1
0.075 0.5 0.1
0.05 0.5 0.1
0.025 0.5 0.1
0.9875 0.5 0.1
0.9625 0.5 0.1
0.9375 0.5 0.1
0.9125 0.5 0.1
0.8875 0.5 0.1
0.8625 0.5 0.1
0.8375 0.5 0.1
0.8125 0.5 0.1
0.7875 0.5 0.1
0.7625 0.5 0.1
0.7375 0.5 0.1
0.7125 0.5 0.1
0.6875 0.5 0.1
0.6625 0.5 0.1
0.6375 0.5 0.1
0.6125 0.5 0.1
0.5875 0.5 0.1
0.5625 0.5 0.1
0.5375 0.5 0.1
0.5125 0.5 0.1
0.4875 0.5 0.1
0.4625 0.5 0.1
0.4375 0.5 0.1
0.4125 0.5 0.1
0.3875 0.5 0.1
0.3625 0.5 0.1
0.3375 0.5 0.1
0.3125 0.5 0.1
0.2875 0.5 0.1
0.2625 0.5 0.1
0.2375 0.5 0.1
0.2125 0.5 0.1
0.1875 0.5 0.1
0.1625 0.5 0.1
0.1375 0.5 0.1
0.1125 0.5 0.1
0.0875 0.5 0.1
0.0625 0.5 0.1
0.0375 0.5 0.1
0.0125 0.5 0.1
0 0.475 0.1
0 0.45 0.1
0 0.425 0.1
0 0.4 0.1
0 0.375 0.1
0 0.35 0.1
0 0.325 0.1
0 0.3 0.1
0 0.275 0.1
0 0.25 0.1
0 0.225 0.1
0 0.2 0.1
0 0.175 0.1
0 0.15 0.1
0 0.125 0.1
0 0.1 0.1
0 0.075 0.1
0 0.05 0.1
0 0.025 0.1
0 0.4875 0.1
0 0.4625 0.1
0 0.4375 0.1
0 0.4125 0.1
0 0.3875 0.1
0 0.3625 0.1
0 0.3375 0.1
0 0.3125 0.1
0 0.2875 0.1
0 0.2625 0.1
0 0.2375 0.1
0 0.2125 0.1
0 0.1875 0.1
0 0.1625 0.1
0 0.1375 0.1
0 0.1125 0.1
0 0.0875 0.1
0 0.0625 0.1
0 0.0375 0.1
0 0.0125 0.1
0.975 0.475 0.1
0.975 0.45 0.1
0.975 0.425 0.1
0.975 0.4 0.1
0.975 0.375 0.1
0.975 0.35 0.1
0.975 0.325 0.1
0.975 0.3 0.1
0.975 0.275 0.1
0.975 0.25 0.1
0.975 0.225 0.1
0.975 0.2 0.1
0.975 0.175 0.1
0.975 0.15 0.1
0.975 0.125 0.1
0.975 0.1 0.1
0.975 0.075 0.1
0.975 0.05 0.1
0.975 0.025 0.1
0.95 0.475 0.1
0.95 0.45 0.1
0.95 0.425 0.1
0.95 0.4 0.1
0.95 0.375 0.1
0.95 0.35 0.1
0.95 0.325 0.1
0.95 0.3 0.1
0.95 0.275 0.1
0.95 0.25 0.1
0.95 0.225 0.1
0.95 0.2 0.1
0.95 0.175 0.1
0.95 0.15 0.1
0.95 0.125 0.1
0.95 0.1 0.1
0.95 0.075 0.1
0.95 0.05 0.1
0.95 0.025 0.1
0.925 0.475 0.1
0.925 0.45 0.1
0.925 0.425 0.1
0.925 0.4 0.1
0.925 0.375 0.1
0.925 0.35 0.1
0.925 0.325 0.1
0.925 0.3 0.1
0.925 0.275 0.1
0.925 0.25 0.1
0.925 0.225 0.1
0.925 0.2 0.1
0.925 0.175 0.1
0.925 0.15 0.1
0.925 0.125 0.1
0.925 0.1 0.1
0.925 0.075 0.1
0.925 0.05 0.1
0.925 0.025 0.1
0.9 0.475 0.1
0.9 0.45 0.1
0.9 0.425 0.1
0.9 0.4 0.1
0.9 0.375 0.1
0.9 0.35 0.1
0.9 0.325 0.1
0.9 0.3 0.1
0.9 0.275 0.1
0.9 0.25 0.1
0.9 0.225 0.1
0.9 0.2 0.1
0.9 0.175 0.1
0.9 0.15 0.1
0.9 0.125 0.1
0.9 0.1 0.1
0.9 0.075 0.1
0.9 0.05 0.1
0.9 0.025 0.1
0.875 0.475 0.1
0.875 0.45 0.1
0.875 0.425 0.1
0.875 0.4 0.1
0.875 0.375 0.1
0.875 0.35 0.1
0.875 0.325 0.1
0.875 0.3 0.1
0.875 0.275 0.1
0.875 0.25 0.1
0.875 0.225 0.1
0.875 0.2 0.1
0.875 0.175 0.1
0.875 0.15 0.1
0.875 0.125 0.1
0.875 0.1 0.1
0.875 0.075 0.1
0.875 0.05 0.1
0.875 0.025 0.1
0.85 0.475 0.1
0.85 0.45 0.1
0.85 0.425 0.1
0.85 0.4 0.1
0.85 0.375 0.1
0.85 0.35 0.1
0.85 0.325 0.1
0.85 0.3 0.1
0.85 0.275 0.1
0.85 0.25 0.1
0.85 0.225 0.1
0.85 0.2 0.1
0.85 0.175 0.1
0.85 0.15 0.1
0.85 0.125 0.1
0.85 0.1 0.1
0.85 0.075 0.1
0.85 0.05 0.1
0.85 0.025 0.1
0.825 0.475 0.1
0.825 0.45 0.1
0.825 0.425 0.1
0.825 0.4 0.1
0.825 0.375 0.1
0.825 0.35 0.1
0.825 0.325 0.1
0.825 0.3 0.1
0.825 0.275 0.1
0.825 0.25 0.1
0.825 0.225 0.1
0.825 0.2 0.1
0.825 0.175 0.1
0.825 0.15 0.1
0.825 0.125 0.1
0.825 0.1 0.1
0.825 0.075 0.1
0.825 0.05 0.1
0.825 0.025 0.1
0.8 0.475 0.1
0.8 0.45 0.1
0.8 0.425 0.1
0.8 0.4 0.1
0.8 0.375 0.1
0.8 0.35 0.1
0.8 0.325 0.1
0.8 0.3 0.1
0.8 0.275 0.1
0.8 0.25 0.1
0.8 0.225 0.1
0.8 0.2 0.1
0.8 0.175 0.1
0.8 0.15 0.1
0.8 0.125 0.1
0.8 0.1 0.1
0.8 0.075 0.1
0.8 0.05 0.1
0.8 0.025 0.1
0.775 0.475 0.1
0.775 0.45 0.1
0.775 0.425 0.1
0.775 0.4 0.1
0.775 0.375 0.1
0.775 0.35 0.1
0.775 0.325 0.1
0.775 0.3 0.1
0.775 0.275 0.1
0.775 0.25 0.1
0.775 0.225 0.1
0.775 0.2 0.1
0.775 0.175 0.1
0.775 0.15 0.1
0.775 0.125 0.1
0.775 0.1 0.1
0.775 0.075 0.1
0.775 0.05 0.1
0.775 0.025 0.1
0.75 0.475 0.1
0.75 0.45 0.1
0.75 0.425 0.1
0.75 0.4 0.1
0.75 0.375 0.1
0.75 0.35 0.1
0.75 0.325 0.1
0.75 0.3 0.1
0.75 0.275 0.1
0.75 0.25 0.1
0.75 0.225 0.1
0.75 0.2 0.1
0.75 0.175 0.1
0.75 0.15 0.1
0.75 0.125 0.1
0.75 0.1 0.1
0.75 0.075 0.1
0.75 0.05 0.1
0.75 0.025 0.1
0.725 0.475 0.1
0.725 0.45 0.1
0.725 0.425 0.1
0.725 0.4 0.1
0.725 0.375 0.1
0.725 0.35 0.1
0.725 0.325 0.1
0.725 0.3 0.1
0.725 0.275 0.1
0.725 0.25 0.1
0.725 0.225 0.1
0.725 0.2 0.1
0.725 0.175 0.1
0.725 0.15 0.1
0.725 0.125 0.1
0.725 0.1 0.1
0.725 0.075 0.1
0.725 0.05 0.1
0.725 0.025 0.1
0.7 0.475 0.1
0.7 0.45 0.1
0.7 0.425 0.1
0.7 0.4 0.1
0.7 0.375 0.1
0.7 0.35 0.1
0.7 0.325 0.1
0.7 0.3 0.1
0.7 0.275 0.1
0.7 0.25 0.1
0.7 0.225 0.1
0.7 0.2 0.1
0.7 0.175 0.1
0.7 0.15 0.1
0.7 0.125 0.1
0.7 0.1 0.1
0.7 0.075 0.1
0.7 0.05 0.1
0.7 0.025 0.1
0.675 0.475 0.1
0.675 0.45 0.1
0.675 0.425 0.1
0.675 0.4 0.1
0.675 0.375 0.1
0.675 0.35 0.1
0.675 0.325 0.1
0.675 0.3 0.1
0.675 0.275 0.1
0.675 0.25 0.1
0.675 0.225 0.1
0.675 0.2 0.1
0.675 0.175 0.1
0.675 0.15 0.1
0.675 0.125 0.1
0.675 0.1 0.1
0.675 0.075 0.1
0.675 0.05 0.1
0.675 0.025 0.1
0.65 0.475 0.1
0.65 0.45 0.1
0.65 0.425 0.1
0.65 0.4 0.1
0.65 0.375 0.1
0.65 0.35 0.1
0.65 0.325 0.1
0.65 0.3 0.1
0.65 0.275 0.1
0.65 0.25 0.1
0.65 0.225 0.1
0.65 0.2 0.1
0.65 0.175 0.1
0.65 0.15 0.1
0.65 0.125 0.1
0.65 0.1 0.1
0.65 0.075 0.1
0.65 0.05 0.1
0.65 0.025 0.1
0.625 0.475 0.1
0.625 0.45 0.1
0.625 0.425 0.1
0.625 0.4 0.1
0.625 0.375 0.1
0.625 0.35 0.1
0.625 0.325 0.1
0.625 0.3 0.1
0.625 0.275 0.1
0.625 0.25 0.1
0.625 0.225 0.1
0.625 0.2 0.1
0.625 0.175 0.1
0.625 0.15 0.1
0.625 0.125 0.1
0.625 0.1 0.1
0.625 0.075 0.1
0.625 0.05 0.1
0.625 0.025 0.1
0.6 0.475 0.1
0.6 0.45 0.1
0.6 0.425 0.1
0.6 0.4 0.1
0.6 0.375 0.1
0.6 0.35 0.1
0.6 0.325 0.1
0.6 0.3 0.1
0.6 0.275 0.1
0.6 0.25 0.1
0.6 0.225 0.1
0.6 0.2 0.1
0.6 0.175 0.1
0.6 0.15 0.1
0.6 0.125 0.1
0.6 0.1 0.1
0.6 0.075 0.1
0.6 0.05 0.1
0.6 0.025 0.1
0.575 0.475 0.1
0.575 0.45 0.1
0.575 0.425 0.1
0.575 0.4 0.1
0.575 0.375 0.1
0.575 0.35 0.1
0.575 0.325 0.1
0.575 0.3 0.1
0.575 0.275 0.1
0.575 0.25 0.1
0.575 0.225 0.1
0.575 0.2 0.1
0.575 0.175 0.1
0.575 0.15 0.1
0.575 0.125 0.1
0.575 0.1 0.1
0.575 0.075 0.1
0.575 0.05 0.1
0.575 0.025 0.1
0.55 0.475 0.1
0.55 0.45 0.1
0.55 0.425 0.1
0.55 0.4 0.1
0.55 0.375 0.1
0.55 0.35 0.1
0.55 0.325 0.1
0.55 0.3 0.1
0.55 0.275 0.1
0.55 0.25 0.1
0.55 0.225 0.1
0.55 0.2 0.1
0.55 0.175 0.1
0.55 0.15 0.1
0.55 0.125 0.1
0.55 0.1 0.1
0.55 0.075 0.1
0.55 0.05 0.1
0.55 0.025 0.1
0.525 0.475 0.1
0.525 0.45 0.1
0.525 0.425 0.1
0.525 0.4 0.1
0.525 0.375 0.1
0.525 0.35 0.1
0.525 0.325 0.1
0.525 0.3 0.1
0.525 0.275 0.1
0.525 0.25 0.1
0.525 0.225 0.1
0.525 0.2 0.1
0.525 0.175 0.1
0.525 0.15 0.1
0.525 0.125 0.1
0.525 0.1 0.1
0.525 0.075 0.1
0.525 0.05 0.1
0.525 0.025 0.1
0.5 0.475 0.1
0.5 0.45 0.1
0.5 0.425 0.1
0.5 0.4 0.1
0.5 0.375 0.1
0.5 0.35 0.1
0.5 0.325 0.1
0.5 0.3 0.1
0.5 0.275 0.1
0.5 0.25 0.1
0.5 0.225 0.1
0.5 0.2 0.1
0.5 0.175 0.1
0.5 0.15 0.1
0.5 0.125 0.1
0.5 0.1 0.1
0.5 0.075 0.1
0.5 0.05 0.1
0.5 0.025 0.1
0.475 0.475 0.1
0.475 0.45 0.1
0.475 0.425 0.1
0.475 0.4 0.1
0.475 0.375 0.1
0.475 0.35 0.1
0.475 0.325 0.1
0.475 0.3 0.1
0.475 0.275 0.1
0.475 0.25 0.1
0.475 0.225 0.1
0.475 0.2 0.1
0.475 0.175 0.1
0.475 0.15 0.1
0.475 0.125 0.1
0.475 0.1 0.1
0.475 0.075 0.1
0.475 0.05 0.1
0.475 0.025 0.1
0.45 0.475 0.1
0.45 0.45 0.1
0.45 0.425 0.1
0.45 0.4 0.1
0.45 0.375 0.1
0.45 0.35 0.1
0.45 0.325 0.1
0.45 0.3 0.1
0.45 0.275 0.1
0.45 0.25 0.1
0.45 0.225 0.1
0.45 0.2 0.1
0.45 0.175 0.1
0.45 0.15 0.1
0.45 0.125 0.1
0.45 0.1 0.1
0.45 0.075 0.1
0.45 0.05 0.1
0.45 0.025 0.1
0.425 0.475 0.1
0.425 0.45 0.1
0.425 0.425 0.1
0.425 0.4 0.1
0.425 0.375 0.1
0.425 0.35 0.1
0.425 0.325 0.1
0.425 0.3 0.1
0.425 0.275 0.1
0.425 0.25 0.1
0.425 0.225 0.1
0.425 0.2 0.1
0.425 0.175 0.1
0.425 0.15 0.1
0.425 0.125 0.1
0.425 0.1 0.1
0.425 0.075 0.1
0.425 0.05 0.1
0.425 0.025 0.1
0.4 0.475 0.1
0.4 0.45 0.1
0.4 0.425 0.1
0.4 0.4 0.1
0.4 0.375 0.1
0.4 0.35 0.1
0.4 0.325 0.1
0.4 0.3 0.1
0.4 0.275 0.1
0.4 0.25 0.1
0.4 0.225 0.1
0.4 0.2 0.1
0.4 0.175 0.1
0.4 0.15 0.1
0.4 0.125 0.1
0.4 0.1 0.1
0.4 0.075 0.1
0.4 0.05 0.1
0.4 0.025 0.1
0.375 0.475 0.1
0.375 0.45 0.1
0.375 0.425 0.1
0.375 0.4 0.1
0.375 0.375 0.1
[...]
    <PointData>
      <DataArray type="Float64" NumberOfComponents="3" Name="Velocity" format="ascii">
0 0 0
0 0 0
0 0 0
0 0 0
0 0 0
0 0 0
0 0 0
0 0 0
0 0 0
0 0 0
0 0 0
0 0 0
0 0 0
0 0 0
0 0 0
0 0 0
0 0 0
0 0 0
0 0 0
0 0 0
0 0 0
0 0 0
0 0 0
0 0 0
0 0 0
0 0 0
0 0 0
0 0 0
0 0 0
0 0 0
0 0 0
0 0 0
0 0 0
0 0 0
0 0 0
0 0 0
0 0 0
0 0 0
0 0 0
0 0 0
0 0 0
0 0 0
0 0 0
0 0 0
0 0 0
0 0 0
0 0 0
0 0 0
0 0 0
0 0 0
0 0 0
0 0 0
0 0 0
0 0 0
0 0 0
0 0 0
0 0 0
0 0 0
0 0 0
0 0 0
0 0 0
0 0 0
0 0 0
0 0 0
0 0 0
0 0 0
0 0 0
0 0 0
0 0 0
0 0 0
0 0 0
0 0 0
0 0 0
0 0 0
0 0 0
0 0 0
0 0 0
0 0 0
0 0 0
0 0 0
0 0 0
0 0 0
0 0 0
0 0 0
0 0 0
0 0 0
0 0 0
0 0 0
0 0 0
0 0 0
0 0 0
0 0 0
0 0 0
0 0 0
0 0 0
0 0 0
0 0 0
0 0 0
0 0 0
0 0 0
0 0 0
0 0 0
0 0 0
0 0 0
0 0 0
0 0 0
0 0 0
0 0 0
0 0 0
0 0 0
0 0 0
0 0 0
0 0 0
0 0 0
0 0 0
0 0 0
0 0 0
0 0 0
0 0 0
0 0 0
0 0 0
0 0 0
-0.38478 0.149447 0
-0.319414 0.178886 0
-0.333228 0.142527 0
-0.375087 0.139023 0
-0.388251 0.145368 0
-0.384066 0.145308 0
-0.390374 0.145496 0
-0.402312 0.127405 0
-0.408225 0.0998162 0
-0.406061 0.082425 0
-0.403012 0.0772521 0
-0.402885 0.0718724 0
-0.404853 0.0617816 0
-0.407343 0.048973 0
-0.408613 0.0380937 0
-0.40934 0.0301288 0
-0.410267 0.0231123 0
-0.411054 0.0158054 0
-0.411936 0.00782219 0
-0.412641 -0.000293912 0
-0.4131 -0.00823302 0
-0.412769 -0.015734 0
-0.411683 -0.022963 0
-0.410786 -0.030496 0
-0.411121 -0.0391867 0
-0.410663 -0.0488736 0
-0.407726 -0.0596295 0
-0.40393 -0.07216 0
-0.403853 -0.0835756 0
-0.40463 -0.0934601 0
-0.400031 -0.102346 0
-0.387914 -0.121078 0
-0.374694 -0.150191 0
-0.372462 -0.16931 0
-0.373981 -0.152637 0
-0.368678 -0.124056 0
-0.337884 -0.136274 0
-0.317742 -0.183385 0
-0.385281 -0.166514 0
-0.417431 -0.00211307 0
-0.344332 0.185873 0
-0.318042 0.162848 0
-0.35624 0.14004 0
-0.384203 0.14155 0
-0.386193 0.145612 0
-0.386015 0.14839 0
-0.396345 0.137577 0
-0.406416 0.112813 0
-0.407316 0.0897182 0
-0.404111 0.0804713 0
-0.402247 0.0763922 0
-0.403453 0.0676162 0
-0.405999 0.0554556 0
-0.407933 0.043632 0
-0.408732 0.0344881 0
-0.409533 0.0272262 0
-0.410419 0.0200163 0
-0.411259 0.0122493 0
-0.412054 0.00423476 0
-0.41268 -0.00393064 0
-0.41278 -0.0116154 0
-0.412035 -0.0188956 0
-0.410966 -0.0262371 0
-0.41077 -0.0345507 0
-0.41107 -0.0442448 0
-0.409352 -0.0540623 0
-0.405294 -0.0653376 0
-0.403269 -0.0772778 0
-0.4045 -0.0876895 0
-0.403119 -0.0984784 0
-0.394413 -0.109939 0
-0.379782 -0.13546 0
-0.372924 -0.161867 0
-0.372997 -0.161296 0
-0.372665 -0.137055 0
-0.356661 -0.128665 0
-0.31904 -0.15902 0
-0.346745 -0.194403 0
-0.390001 -0.0372006 0
0 0 0
0 0 0
0 0 0
0 0 0
0 0 0
0 0 0
0 0 0
0 0 0
0 0 0
0 0 0
0 0 0
0 0 0
0 0 0
0 0 0
0 0 0
0 0 0
0 0 0
0 0 0
0 0 0
0 0 0
0 0 0
0 0 0
0 0 0
0 0 0
0 0 0
0 0 0
0 0 0
0 0 0
0 0 0
0 0 0
0 0 0
0 0 0
0 0 0
0 0 0
0 0 0
0 0 0
0 0 0
0 0 0
0 0 0
-0.367271 0.127472 0
-0.364435 0.123876 0
-0.410172 0.107331 0
-0.431459 0.0860819 0
-0.400467 0.0737881 0
-0.401046 0.065409 0
-0.401254 0.0563554 0
-0.401227 0.0476849 0
-0.401443 0.0401832 0
-0.401786 0.033901 0
-0.40211 0.0282269 0
-0.402474 0.0228774 0
-0.402819 0.0179659 0
-0.403128 0.0135446 0
-0.403433 0.00956129 0
-0.403766 0.00604459 0
-0.404131 0.00305994 0
-0.404504 0.000729519 0
-0.404666 -0.000573596 0
-0.328092 0.193829 0
-0.335352 0.194872 0
-0.387157 0.178533 0
-0.426352 0.132975 0
-0.408098 0.121339 0
-0.396263 0.111342 0
-0.391973 0.0965168 0
-0.391279 0.0820621 0
-0.391921 0.0695802 0
-0.392964 0.0589874 0
-0.394194 0.0493519 0
-0.395321 0.0402862 0
-0.39632 0.0319794 0
-0.397237 0.024444 0
-0.398156 0.017643 0
-0.399176 0.0116313 0
-0.400405 0.0065404 0
-0.401926 0.00267286 0
-0.4038 0.000476082 0
-0.328427 0.201385 0
-0.324721 0.206377 0
-0.356607 0.209221 0
-0.403403 0.204847 0
-0.394471 0.170253 0
-0.382246 0.142875 0
-0.377847 0.121296 0
-0.37774 0.103403 0
-0.379263 0.0883121 0
-0.381342 0.0752218 0
-0.383543 0.063241 0
-0.385576 0.0520303 0
-0.387389 0.0416583 0
-0.389097 0.032162 0
-0.390839 0.0235518 0
-0.392812 0.0159154 0
-0.395227 0.00943587 0
-0.398314 0.00440382 0
-0.402139 0.00123628 0
-0.344325 0.181301 0
-0.326752 0.198883 0
-0.346622 0.215688 0
-0.388845 0.217901 0
-0.365956 0.180893 0
-0.360981 0.154052 0
-0.360513 0.132162 0
-0.362288 0.113635 0
-0.365132 0.0979103 0
-0.368311 0.0839462 0
-0.371442 0.0710145 0
-0.374341 0.0588531 0
-0.377003 0.0474833 0
-0.379558 0.0369668 0
-0.38222 0.0273563 0
-0.385262 0.018768 0
-0.389005 0.0114046 0
-0.393781 0.00556022 0
-0.399685 0.00167496 0
-0.36078 0.186383 0
-0.336856 0.198872 0
-0.344489 0.201736 0
-0.378716 0.189737 0
-0.348436 0.164286 0
-0.343121 0.148034 0
-0.344358 0.131319 0
-0.347424 0.115166 0
-0.351156 0.100506 0
-0.355082 0.0869546 0
-0.358917 0.0741091 0
-0.362532 0.0618541 0
-0.365951 0.0502435 0
-0.369321 0.0393756 0
-0.372897 0.0293546 0
-0.377025 0.0203227 0
-0.382123 0.0124937 0
-0.388628 0.006186 0
-0.396768 0.00189158 0
-0.365485 0.185533 0
-0.342314 0.188397 0
-0.337398 0.1806 0
-0.362965 0.16979 0
-0.341668 0.150686 0
-0.333478 0.138003 0
-0.332556 0.124787 0
-0.334813 0.111373 0
-0.338388 0.0984725 0
-0.34248 0.0860034 0
-0.346678 0.0738494 0
-0.350795 0.0620375 0
-0.354826 0.0506876 0
-0.358913 0.0399408 0
-0.363335 0.0299342 0
-0.368501 0.0208354 0
-0.374921 0.012881 0
-0.383157 0.00641806 0
-0.393618 0.00196997 0
-0.36268 0.169392 0
-0.332294 0.170606 0
-0.32386 0.164399 0
-0.348403 0.160798 0
-0.337536 0.144267 0
-0.327539 0.13012 0
-0.323771 0.117351 0
-0.324272 0.105336 0
-0.327009 0.093882 0
-0.330836 0.0825913 0
-0.335111 0.0713582 0
-0.339527 0.0602706 0
-0.344016 0.0494822 0
-0.348703 0.0391561 0
-0.353881 0.0294599 0
-0.360005 0.020573 0
-0.367687 0.0127503 0
-0.377636 0.00636035 0
-0.390434 0.00195568 0
-0.360751 0.147595 0
-0.322961 0.157746 0
-0.312576 0.154974 0
-0.341808 0.158104 0
-0.330822 0.138856 0
-0.320959 0.123327 0
-0.315703 0.110018 0
-0.314816 0.0984848 0
-0.316723 0.088 0
-0.320167 0.077731 0
-0.324377 0.0674537 0
-0.328952 0.0572104 0
-0.333771 0.0471475 0
-0.33894 0.0374339 0
-0.344769 0.0282413 0
-0.351766 0.0197681 0
-0.360628 0.0122693 0
-0.372209 0.00612151 0
-0.387297 0.00187926 0
-0.362684 0.127868 0
-0.321016 0.147986 0
-0.308169 0.14502 0
-0.337807 0.147642 0
-0.321999 0.127874 0
-0.312566 0.114372 0
-0.307319 0.10199 0
-0.305879 0.0910303 0
-0.307278 0.0813429 0
-0.310415 0.0720213 0
-0.314525 0.0626831 0
-0.319176 0.0533268 0
-0.324231 0.0440727 0
-0.329789 0.035081 0
-0.33618 0.0265231 0
-0.343962 0.0185904 0
-0.353928 0.0115505 0
-0.367056 0.00576286 0
-0.384319 0.00176819 0
-0.362827 0.113131 0
-0.322529 0.135611 0
-0.309615 0.131652 0
-0.335394 0.13168 0
-0.315246 0.113527 0
-0.304509 0.102893 0
-0.299222 0.092661 0
-0.297579 0.0828773 0
-0.298675 0.0741579 0
-0.30158 0.0657848 0
-0.305578 0.0573862 0
-0.310259 0.0489351 0
-0.315481 0.040533 0
-0.321347 0.0323255 0
-0.32822 0.0244773 0
-0.336706 0.017179 0
-0.347682 0.0106807 0
-0.362259 0.00533487 0
-0.381557 0.00163413 0
-0.363003 0.102017 0
-0.322571 0.119203 0
-0.311102 0.115382 0
-0.332764 0.11403 0
-0.310913 0.0993427 0
-0.29843 0.0907493 0
-0.292307 0.0825127 0
-0.290253 0.0742384 0
-0.291023 0.0666401 0
-0.293682 0.0592535 0
-0.29755 0.0517945 0
-0.302224 0.044248 0
-0.307561 0.0367136 0
-0.313678 0.0293251 0
-0.320959 0.0222309 0
-0.330072 0.0156185 0
-0.341969 0.00971563 0
-0.357869 0.00485023 0
-0.37904 0.00149333 0
-0.362838 0.0896707 0
-0.318909 0.1011 0
-0.310076 0.099752 0
-0.330925 0.0967938 0
-0.308196 0.0859621 0
-0.294185 0.0792051 0
-0.286826 0.0725048 0
-0.284046 0.0655347 0
-0.284356 0.0590166 0
-0.286729 0.0526038 0
-0.29044 0.0460654 0
-0.295073 0.0394118 0
-0.300485 0.0327439 0
-0.306801 0.026186 0
-0.314431 0.0198739 0
-0.324095 0.0139688 0
-0.336817 0.00869409 0
-0.353915 0.00435112 0
-0.376769 0.00134711 0
-0.362823 0.0773478 0
-0.316167 0.0866727 0
-0.306263 0.0878059 0
-0.329684 0.0839774 0
-0.305924 0.0741595 0
-0.290675 0.0685131 0
-0.282304 0.0629637 0
-0.278778 0.0570506 0
-0.278607 0.0514792 0
-0.280681 0.0459588 0
-0.284229 0.0403003 0
-0.288805 0.0345191 0
-0.29426 0.0287074 0
-0.300736 0.0229777 0
-0.308666 0.0174528 0
-0.318802 0.0122779 0
-0.332251 0.00764802 0
-0.350417 0.00382603 0
-0.374769 0.00118307 0
-0.363592 0.0643511 0
-0.315301 0.0741995 0
-0.302739 0.0759004 0
-0.329315 0.0723732 0
-0.30348 0.0630391 0
-0.287309 0.058229 0
-0.278302 0.0537598 0
-0.274245 0.0488132 0
-0.273677 0.0440838 0
-0.275487 0.0393839 0
-0.27888 0.0345591 0
-0.283399 0.0296215 0
-0.288884 0.0246534 0
-0.295483 0.0197485 0
-0.303659 0.01501 0
-0.314205 0.0105622 0
-0.328279 0.00657812 0
-0.347374 0.00329325 0
-0.373021 0.0010198 0
-0.364992 0.0523179 0
-0.315521 0.0617877 0
-0.301843 0.0638528 0
-0.328326 0.0601508 0
-0.301336 0.052098 0
-0.284366 0.0481553 0
-0.274794 0.0447061 0
-0.270379 0.0407421 0
-0.269514 0.0368252 0
-0.271109 0.0328999 0
-0.274371 0.0288673 0
-0.278833 0.0247485 0
-0.284338 0.0206085 0
-0.291036 0.0165183 0
-0.299416 0.012561 0
-0.310306 0.00884863 0
-0.324905 0.00550527 0
-0.344786 0.00274321 0
-0.371554 0.000860884 0
-0.366045 0.0420339 0
-0.315463 0.0493488 0
-0.302618 0.0509026 0
-0.327275 0.0478806 0
-0.299856 0.0416208 0
-0.282066 0.0384464 0
-0.271962 0.0358282 0
-0.267202 0.0327961 0
-0.266089 0.0296731 0
-0.267517 0.0264884 0
-0.270683 0.0232242 0
-0.2751 0.0199078 0
-0.280617 0.0165832 0
-0.287398 0.013301 0
-0.295934 0.0101238 0
-0.307098 0.00712555 0
-0.322142 0.00443234 0
-0.342653 0.00220066 0
-0.370331 0.00069573 0
-0.366697 0.0320538 0
-0.314895 0.0368544 0
-0.303631 0.0380236 0
-0.32657 0.0358414 0
-0.298647 0.0314905 0
-0.280336 0.0290781 0
-0.269759 0.0271486 0
-0.264688 0.0249772 0
-0.263372 0.0225997 0
-0.264692 0.020129 0
-0.267795 0.0176148 0
-0.272188 0.0150929 0
-0.277716 0.0125772 0
-0.284556 0.010094 0
-0.293229 0.00768711 0
-0.304603 0.00541625 0
-0.319964 0.00337022 0
-0.340968 0.00167074 0
-0.369351 0.000532945 0
-0.366894 0.0219846 0
-0.314303 0.0249952 0
-0.303755 0.0257302 0
-0.326917 0.0240475 0
-0.297848 0.0214161 0
-0.279023 0.0198865 0
-0.268064 0.0186247 0
-0.262781 0.0172388 0
-0.261358 0.0155656 0
-0.262629 0.0137772 0
-0.265712 0.012018 0
-0.270089 0.0102942 0
-0.275626 0.0085829 0
-0.282511 0.00689328 0
-0.291269 0.00525454 0
-0.302804 0.00370683 0
-0.318412 0.00230151 0
-0.339771 0.00114325 0
-0.368645 0.000388213 0
-0.366842 0.0122793 0
-0.313807 0.0145419 0
-0.303658 0.0152236 0
-0.327501 0.0137457 0
-0.297539 0.0117616 0
-0.278176 0.0108303 0
-0.266913 0.0101866 0
-0.261467 0.0095017 0
-0.260068 0.0084785 0
-0.261367 0.00739261 0
-0.264442 0.00641923 0
-0.268808 0.00550057 0
-0.274351 0.00459198 0
-0.281265 0.0036936 0
-0.290077 0.00282035 0
-0.301701 0.00199061 0
-0.317445 0.00124769 0
-0.339009 0.000636218 0
-0.368199 0.000223974 0
-0.367027 0.00282709 0
-0.31322 0.00419471 0
-0.303823 0.00462242 0
-0.327818 0.00362583 0
-0.297363 0.00233172 0
-0.277838 0.0019024 0
-0.26648 0.00185647 0
-0.261011 0.00168328 0
-0.259642 0.00129351 0
-0.26092 0.000991099 0
-0.263972 0.000817684 0
-0.268342 0.000697345 0
-0.273895 0.00058812 0
-0.280826 0.000479251 0
-0.289665 0.000378146 0
-0.301315 0.00027013 0
-0.317114 0.000170076 0
-0.338775 9.31479e-05 0
-0.368085 6.91134e-05 0
-0.367338 -0.00726986 0
-0.313379 -0.00682737 0
-0.304645 -0.00642553 0
-0.327844 -0.00690591 0
-0.297484 -0.00737187 0
-0.278127 -0.00709201 0
-0.266887 -0.00656204 0
-0.26152 -0.00617151 0
-0.26008 -0.00583873 0
-0.261292 -0.00538797 0
-0.264328 -0.00480513 0
-0.268702 -0.00413417 0
-0.274265 -0.00344165 0
-0.281193 -0.00275501 0
-0.290017 -0.00209073 0
-0.30165 -0.00146773 0
-0.317407 -0.000914835 0
-0.338987 -0.000457978 0
-0.368207 -9.94692e-05 0
-0.367511 -0.0167403 0
-0.313543 -0.0172505 0
-0.305467 -0.0173464 0
-0.327459 -0.0175805 0
-0.298021 -0.0170646 0
-0.278971 -0.0161301 0
-0.267925 -0.0150553 0
-0.262636 -0.0140305 0
-0.261252 -0.0129502 0
-0.262487 -0.011762 0
-0.265529 -0.0104405 0
-0.269913 -0.00899774 0
-0.275474 -0.00750435 0
-0.282382 -0.00601832 0
-0.291155 -0.0045785 0
-0.30269 -0.00322954 0
-0.31829 -0.00200714 0
-0.339647 -0.00100675 0
-0.368564 -0.000260408 0
-0.367948 -0.0264581 0
-0.314087 -0.0281717 0
-0.305649 -0.0294361 0
-0.32684 -0.0284366 0
-0.298853 -0.0266427 0
-0.280333 -0.0251283 0
-0.269509 -0.0235575 0
-0.264372 -0.0219376 0
-0.263114 -0.0201352 0
-0.264458 -0.0181941 0
-0.267563 -0.0161125 0
-0.271973 -0.0138959 0
-0.277531 -0.0116022 0
-0.284395 -0.00931432 0
-0.293074 -0.00709451 0
-0.304445 -0.00499425 0
-0.319789 -0.00310611 0
-0.340784 -0.00154925 0
-0.369203 -0.000438231 0
-0.368065 -0.0361344 0
-0.313909 -0.0399402 0
-0.304488 -0.0427271 0
-0.327177 -0.0402212 0
-0.300248 -0.0364092 0
-0.282144 -0.0341479 0
-0.271603 -0.0321416 0
-0.266698 -0.0299594 0
-0.265658 -0.0274623 0
-0.267181 -0.0247447 0
-0.270409 -0.0218675 0
-0.274879 -0.0188494 0
-0.28044 -0.0157441 0
-0.287247 -0.0126418 0
-0.295794 -0.00962625 0
-0.306942 -0.00678592 0
-0.321953 -0.00423487 0
-0.342466 -0.00211778 0
-0.370176 -0.000608801 0
-0.367304 -0.0465437 0
-0.312784 -0.0523877 0
-0.303102 -0.0559805 0
-0.328677 -0.0514979 0
-0.302062 -0.0460783 0
-0.284322 -0.0433482 0
-0.274166 -0.0409748 0
-0.269618 -0.0382186 0
-0.268879 -0.0350019 0
-0.270652 -0.0314746 0
-0.274059 -0.0277509 0
-0.278623 -0.0238852 0
-0.284201 -0.0199393 0
-0.290939 -0.0160049 0
-0.29932 -0.0121901 0
-0.310179 -0.00859466 0
-0.32474 -0.00537133 0
-0.344591 -0.00268772 0
-0.371387 -0.000787439 0
-0.365666 -0.0574443 0
-0.311127 -0.0650841 0
-0.303705 -0.0681634 0
-0.331203 -0.0626168 0
-0.304099 -0.0562296 0
-0.286833 -0.0531307 0
-0.277242 -0.0502825 0
-0.273174 -0.0468461 0
-0.272833 -0.042828 0
-0.274909 -0.0384195 0
-0.27853 -0.0337894 0
-0.283212 -0.029021 0
-0.288808 -0.0241921 0
-0.295462 -0.019399 0
-0.303634 -0.0147603 0
-0.31414 -0.0104168 0
-0.328165 -0.00651707 0
-0.347211 -0.00327679 0
-0.372896 -0.000956687 0
-0.365323 -0.0700277 0
-0.310629 -0.0779835 0
-0.307797 -0.0813 0
-0.333631 -0.0744768 0
-0.306758 -0.0676515 0
-0.290009 -0.0638188 0
-0.281032 -0.0602237 0
-0.277507 -0.0559059 0
-0.277605 -0.0509567 0
-0.280014 -0.045584 0
-0.28386 -0.0399743 0
-0.28866 -0.0342464 0
-0.294264 -0.0284919 0
-0.300812 -0.0228159 0
-0.308744 -0.017345 0
-0.318834 -0.012234 0
-0.332205 -0.0076515 0
-0.350313 -0.00385665 0
-0.374664 -0.0011347 0
-0.367746 -0.0830723 0
-0.311789 -0.0932705 0
-0.312129 -0.0985534 0
-0.338024 -0.0881316 0
-0.310825 -0.080267 0
-0.294231 -0.0754039 0
-0.285767 -0.070755 0
-0.282788 -0.0653614 0
-0.283333 -0.0593425 0
-0.28606 -0.0529015 0
-0.290107 -0.0462474 0
-0.294997 -0.0395139 0
-0.300579 -0.0328031 0
-0.306986 -0.0262264 0
-0.31463 -0.0199111 0
-0.324236 -0.0140311 0
-0.336874 -0.00878538 0
-0.3539 -0.00442899 0
-0.376717 -0.00130503 0
-0.369084 -0.0942252 0
-0.311424 -0.107966 0
-0.313819 -0.117653 0
-0.344638 -0.103164 0
-0.315666 -0.0937038 0
-0.29942 -0.0875657 0
-0.291595 -0.0817111 0
-0.28918 -0.0750586 0
-0.290129 -0.0678298 0
-0.293125 -0.0602431 0
-0.297324 -0.052499 0
-0.302255 -0.0447322 0
-0.307763 -0.0370514 0
-0.313971 -0.0295679 0
-0.321267 -0.0224203 0
-0.330326 -0.0157854 0
-0.342122 -0.00987333 0
-0.357924 -0.00496984 0
-0.37902 -0.0014831 0
-0.364278 -0.105338 0
-0.307874 -0.123344 0
-0.314046 -0.138101 0
-0.349508 -0.12235 0
-0.321116 -0.108512 0
-0.305864 -0.100139 0
-0.298764 -0.0927112 0
-0.296796 -0.0846569 0
-0.298069 -0.0761662 0
-0.301267 -0.0674067 0
-0.305548 -0.0585568 0
-0.31045 -0.049759 0
-0.315817 -0.0411218 0
-0.321759 -0.032757 0
-0.328637 -0.024804 0
-0.33707 -0.0174469 0
-0.347951 -0.0109128 0
-0.362418 -0.00550778 0
-0.381624 -0.00164496 0
-0.356042 -0.123646 0
-0.30382 -0.143836 0
-0.314119 -0.15767 0
-0.353478 -0.139446 0
-0.328324 -0.122023 0
-0.313909 -0.111842 0
-0.3072 -0.102978 0
-0.3056 -0.0937069 0
-0.30715 -0.084027 0
-0.310492 -0.0741162 0
-0.314784 -0.0641871 0
-0.319574 -0.0543918 0
-0.324715 -0.0448463 0
-0.330309 -0.0356585 0
-0.336688 -0.0269644 0
-0.344411 -0.018949 0
-0.354277 -0.011851 0
-0.367281 -0.0059859 0
-0.384426 -0.0017973 0
-0.348159 -0.147032 0
-0.304259 -0.164636 0
-0.319449 -0.170666 0
-0.354905 -0.152109 0
-0.336211 -0.131262 0
-0.322653 -0.12101 0
-0.316504 -0.111926 0
-0.315423 -0.1018 0
-0.317311 -0.0910439 0
-0.320776 -0.0800363 0
-0.325006 -0.0690825 0
-0.329591 -0.0583617 0
-0.334406 -0.0479976 0
-0.339553 -0.0380892 0
-0.34534 -0.0287594 0
-0.352264 -0.0201889 0
-0.361026 -0.0126256 0
-0.372482 -0.00638462 0
-0.387437 -0.0019273 0
-0.353868 -0.173755 0
-0.316484 -0.186768 0
-0.32824 -0.185999 0
-0.357403 -0.159394 0
-0.343013 -0.1359 0
-0.331253 -0.127813 0
-0.326351 -0.119375 0
-0.326187 -0.108583 0
-0.328543 -0.0967777 0
-0.332093 -0.0847172 0
-0.336157 -0.0728272 0
-0.340416 -0.0613083 0
-0.344788 -0.0502723 0
-0.349382 -0.0398003 0
-0.354475 -0.0299963 0
-0.360511 -0.0210292 0
-0.368087 -0.0131418 0
-0.377904 -0.00665645 0
-0.390572 -0.00201488 0
-0.362614 -0.18705 0
-0.327964 -0.206732 0
-0.343279 -0.201464 0
-0.364361 -0.164099 0
-0.346957 -0.142054 0
-0.338827 -0.134837 0
-0.336867 -0.125564 0
-0.338124 -0.113606 0
-0.340917 -0.100565 0
-0.344385 -0.0875003 0
-0.34811 -0.0748476 0
-0.35189 -0.0627517 0
-0.35569 -0.0512786 0
-0.359618 -0.0404775 0
-0.363921 -0.0304307 0
-0.368979 -0.0212878 0
-0.375295 -0.0132819 0
-0.383423 -0.00672567 0
-0.393763 -0.00203989 0
-0.35962 -0.184116 0
-0.341969 -0.219864 0
-0.361667 -0.223163 0
-0.376069 -0.1858 0
-0.350958 -0.158411 0
-0.348494 -0.14349 0
-0.349689 -0.12992 0
-0.351775 -0.115561 0
-0.354442 -0.101219 0
-0.357459 -0.087423 0
-0.360604 -0.0743701 0
-0.363739 -0.0620694 0
-0.366841 -0.0505224 0
-0.370005 -0.0397329 0
-0.373437 -0.0297618 0
-0.377451 -0.0207393 0
-0.382452 -0.0128854 0
-0.388865 -0.00650581 0
-0.396901 -0.00196715 0
-0.348613 -0.175576 0
-0.347311 -0.225835 0
-0.367668 -0.235566 0
-0.381009 -0.211126 0
-0.365463 -0.174865 0
-0.365512 -0.147127 0
-0.365875 -0.128231 0
-0.366897 -0.11192 0
-0.36865 -0.0970264 0
-0.370827 -0.0832297 0
-0.373168 -0.0704314 0
-0.375523 -0.0585152 0
-0.37784 -0.0474176 0
-0.380178 -0.0371139 0
-0.382693 -0.0276453 0
-0.385624 -0.0191288 0
-0.389288 -0.0117747 0
-0.393996 -0.00588096 0
-0.399831 -0.00175383 0
-0.347155 -0.183799 0
-0.350335 -0.2239 0
-0.367941 -0.221443 0
-0.378625 -0.194374 0
-0.393611 -0.156886 0
-0.387061 -0.132053 0
-0.383043 -0.114769 0
-0.381935 -0.0998268 0
-0.382451 -0.0861196 0
-0.383632 -0.0735215 0
-0.385086 -0.061945 0
-0.38662 -0.0512418 0
-0.388126 -0.0413124 0
-0.389648 -0.0321377 0
-0.391262 -0.023732 0
-0.393133 -0.0162081 0
-0.395484 -0.00977402 0
-0.398551 -0.00473003 0
-0.402348 -0.00132511 0
-0.348473 -0.186061 0
-0.358951 -0.190833 0
-0.387733 -0.17955 0
-0.396532 -0.11845 0
-0.409173 -0.0985038 0
-0.401081 -0.0953669 0
-0.396422 -0.0876154 0
-0.394611 -0.0774322 0
-0.394336 -0.0668846 0
-0.394723 -0.0569565 0
-0.395422 -0.047845 0
-0.396208 -0.0394046 0
-0.396989 -0.0315878 0
-0.397767 -0.0243652 0
-0.398588 -0.0177596 0
-0.399535 -0.0118483 0
-0.400709 -0.0068123 0
-0.402243 -0.00298068 0
-0.404236 -0.000578799 0
-0.377888 -0.130942 0
-0.387312 -0.121575 0
-0.415369 -0.0981596 0
-0.422822 -0.0596527 0
-0.397571 -0.0530086 0
-0.403421 -0.0523375 0
-0.403625 -0.0491837 0
-0.40299 -0.0441487 0
-0.402718 -0.0382339 0
-0.402814 -0.0325399 0
-0.403019 -0.0272522 0
-0.403249 -0.0223207 0
-0.403498 -0.0177808 0
-0.403737 -0.013544 0
-0.403995 -0.00968167 0
-0.404281 -0.00620864 0
-0.404604 -0.00318368 0
-0.404968 -0.000795321 0
-0.40562 0.00071979 0
-0.383137 0.131218 0
-0.392516 0.0460061 0
-0.384441 0.0656434 0
-0.357669 0.129828 0
-0.38162 0.0689419 0
-0.387542 0.0637701 0
-0.38003 0.117868 0
-0.396699 0.0583948 0
-0.413609 0.055476 0
-0.432685 0.0960591 0
-0.42651 0.060112 0
-0.419102 0.0651165 0
-0.406359 0.0804119 0
-0.404331 0.0598145 0
-0.403541 0.0491049 0
-0.401614 0.0692113 0
-0.404085 0.0420058 0
-0.403986 0.0372494 0
-0.401466 0.0607653 0
-0.404016 0.0335882 0
-0.403932 0.0305332 0
-0.401218 0.0518623 0
-0.40386 0.0278176 0
-0.403826 0.0254088 0
-0.401261 0.0437809 0
-0.403791 0.0232188 0
-0.403812 0.0212704 0
-0.401547 0.0369185 0
-0.403832 0.0194764 0
-0.403895 0.017889 0