<?xml version="1.0"?>
<VTKFile type="UnstructuredGrid">
  <UnstructuredGrid>
  <Piece NumberOfPoints="4488"  NumberOfCells="1024">
    <Points>
      <DataArray type="Float64" NumberOfComponents="3" format="ascii">
0 0 0.1
0.0125 0 0.1
0.025 0 0.1
0.0375 0 0.1
0.05 0 0.1
0.0625 0 0.1
0.075 0 0.1
0.0875 0 0.1
0.1 0 0.1
0.1125 0 0.1
0.125 0 0.1
0.1375 0 0.1
0.15 0 0.1
0.1625 0 0.1
0.175 0 0.1
0.1875 0 0.1
0.2 0 0.1
0 0.0125 0.1
0.0125 0.0125 0.1
0.025 0.0125 0.1
0.0375 0.0125 0.1
0.05 0.0125 0.1
0.0625 0.0125 0.1
0.075 0.0125 0.1
0.0875 0.0125 0.1
0.1 0.0125 0.1
0.1125 0.0125 0.1
0.125 0.0125 0.1
0.1375 0.0125 0.1
0.15 0.0125 0.1
0.1625 0.0125 0.1
0.175 0.0125 0.1
0.1875 0.0125 0.1
0.2 0.0125 0.1
0 0.025 0.1
0.0125 0.025 0.1
0.025 0.025 0.1
0.0375 0.025 0.1
0.05 0.025 0.1
0.0625 0.025 0.1
0.075 0.025 0.1
0.0875 0.025 0.1
0.1 0.025 0.1
0.1125 0.025 0.1
0.125 0.025 0.1
0.1375 0.025 0.1
0.15 0.025 0.1
0.1625 0.025 0.1
0.175 0.025 0.1
0.1875 0.025 0.1
0.2 0.025 0.1
0 0.0375 0.1
0.0125 0.0375 0.1
0.025 0.0375 0.1
0.0375 0.0375 0.1
0.05 0.0375 0.1
0.0625 0.0375 0.1
0.075 0.0375 0.1
0.0875 0.0375 0.1
0.1 0.0375 0.1
0.1125 0.0375 0.1
0.125 0.0375 0.1
0.1375 0.0375 0.1
0.15 0.0375 0.1
0.1625 0.0375 0.1
0.175 0.0375 0.1
0.1875 0.0375 0.1
0.2 0.0375 0.1
0 0.05 0.1
0.0125 0.05 0.1
0.025 0.05 0.1
0.0375 0.05 0.1
0.05 0.05 0.1
0.0625 0.05 0.1
0.075 0.05 0.1
0.0875 0.05 0.1
0.1 0.05 0.1
0.1125 0.05 0.1
0.125 0.05 0.1
0.1375 0.05 0.1
0.15 0.05 0.1
0.1625 0.05 0.1
0.175 0.05 0.1
0.1875 0.05 0.1
0.2 0.05 0.1
0 0.0625 0.1
0.0125 0.0625 0.1
0.025 0.0625 0.1
0.0375 0.0625 0.1
0.05 0.0625 0.1
0.0625 0.0625 0.1
0.075 0.0625 0.1
0.0875 0.0625 0.1
0.1 0.0625 0.1
0.1125 0.0625 0.1
0.125 0.0625 0.1
0.1375 0.0625 0.1
0.15 0.0625 0.1
0.1625 0.0625 0.1
0.175 0.0625 0.1
0.1875 0.0625 0.1
0.2 0.0625 0.1
0 0.075 0.1
0.0125 0.075 0.1
0.025 0.075 0.1
0.0375 0.075 0.1
0.05 0.075 0.1
0.0625 0.075 0.1
0.075 0.075 0.1
0.0875 0.075 0.1
0.1 0.075 0.1
0.1125 0.075 0.1
0.125 0.075 0.1
0.1375 0.075 0.1
0.15 0.075 0.1
0.1625 0.075 0.1
0.175 0.075 0.1
0.1875 0.075 0.1
0.2 0.075 0.1
0 0.0875 0.1
0.0125 0.0875 0.1
0.025 0.0875 0.1
0.0375 0.0875 0.1
0.05 0.0875 0.1
0.0625 0.0875 0.1
0.075 0.0875 0.1
0.0875 0.0875 0.1
0.1 0.0875 0.1
0.1125 0.0875 0.1
0.125 0.0875 0.1
0.1375 0.0875 0.1
0.15 0.0875 0.1
0.1625 0.0875 0.1
0.175 0.0875 0.1
0.1875 0.0875 0.1
0.2 0.0875 0.1
0 0.1 0.1
0.0125 0.1 0.1
0.025 0.1 0.1
0.0375 0.1 0.1
0.05 0.1 0.1
0.0625 0.1 0.1
0.075 0.1 0.1
0.0875 0.1 0.1
0.1 0.1 0.1
0.1125 0.1 0.1
0.125 0.1 0.1
0.1375 0.1 0.1
0.15 0.1 0.1
0.1625 0.1 0.1
0.175 0.1 0.1
0.1875 0.1 0.1
0.2 0.1 0.1
0 0.1125 0.1
0.0125 0.1125 0.1
0.025 0.1125 0.1
0.0375 0.1125 0.1
0.05 0.1125 0.1
0.0625 0.1125 0.1
0.075 0.1125 0.1
0.0875 0.1125 0.1
0.1 0.1125 0.1
0.1125 0.1125 0.1
0.125 0.1125 0.1
0.1375 0.1125 0.1
0.15 0.1125 0.1
0.1625 0.1125 0.1
0.175 0.1125 0.1
0.1875 0.1125 0.1
0.2 0.1125 0.1
0 0.125 0.1
0.0125 0.125 0.1
0.025 0.125 0.1
0.0375 0.125 0.1
0.05 0.125 0.1
0.0625 0.125 0.1
0.075 0.125 0.1
0.0875 0.125 0.1
0.1 0.125 0.1
0.1125 0.125 0.1
0.125 0.125 0.1
0.1375 0.125 0.1
0.15 0.125 0.1
0.1625 0.125 0.1
0.175 0.125 0.1
0.1875 0.125 0.1
0.2 0.125 0.1
0 0.1375 0.1
0.0125 0.1375 0.1
0.025 0.1375 0.1
0.0375 0.1375 0.1
0.05 0.1375 0.1
0.0625 0.1375 0.1
0.075 0.1375 0.1
0.0875 0.1375 0.1
0.1 0.1375 0.1
0.1125 0.1375 0.1
0.125 0.1375 0.1
0.1375 0.1375 0.1
0.15 0.1375 0.1
0.1625 0.1375 0.1
0.175 0.1375 0.1
0.1875 0.1375 0.1
0.2 0.1375 0.1
0 0.15 0.1
0.0125 0.15 0.1
0.025 0.15 0.1
0.0375 0.15 0.1
0.05 0.15 0.1
0.0625 0.15 0.1
0.075 0.15 0.1
0.0875 0.15 0.1
0.1 0.15 0.1
0.1125 0.15 0.1
0.125 0.15 0.1
0.1375 0.15 0.1
0.15 0.15 0.1
0.1625 0.15 0.1
0.175 0.15 0.1
0.1875 0.15 0.1
0.2 0.15 0.1
0 0.1625 0.1
0.0125 0.1625 0.1
0.025 0.1625 0.1
0.0375 0.1625 0.1
0.05 0.1625 0.1
0.0625 0.1625 0.1
0.075 0.1625 0.1
0.0875 0.1625 0.1
0.1 0.1625 0.1
0.1125 0.1625 0.1
0.125 0.1625 0.1
0.1375 0.1625 0.1
0.15 0.1625 0.1
0.1625 0.1625 0.1
0.175 0.1625 0.1
0.1875 0.1625 0.1
0.2 0.1625 0.1
0 0.175 0.1
0.0125 0.175 0.1
0.025 0.175 0.1
0.0375 0.175 0.1
0.05 0.175 0.1
0.0625 0.175 0.1
0.075 0.175 0.1
0.0875 0.175 0.1
0.1 0.175 0.1
0.1125 0.175 0.1
0.125 0.175 0.1
0.1375 0.175 0.1
0.15 0.175 0.1
0.1625 0.175 0.1
0.175 0.175 0.1
0.1875 0.175 0.1
0.2 0.175 0.1
0 0.1875 0.1
0.0125 0.1875 0.1
0.025 0.1875 0.1
0.0375 0.1875 0.1
0.05 0.1875 0.1
0.0625 0.1875 0.1
0.075 0.1875 0.1
0.0875 0.1875 0.1
0.1 0.1875 0.1
0.1125 0.1875 0.1
0.125 0.1875 0.1
0.1375 0.1875 0.1
0.15 0.1875 0.1
0.1625 0.1875 0.1
0.175 0.1875 0.1
0.1875 0.1875 0.1
0.2 0.1875 0.1
0 0.2 0.1
0.0125 0.2 0.1
0.025 0.2 0.1
0.0375 0.2 0.1
0.05 0.2 0.1
0.0625 0.2 0.1
0.075 0.2 0.1
0.0875 0.2 0.1
0.1 0.2 0.1
0.1125 0.2 0.1
0.125 0.2 0.1
0.1375 0.2 0.1
0.15 0.2 0.1
0.1625 0.2 0.1
0.175 0.2 0.1
0.1875 0.2 0.1
0.2 0.2 0.1
0.2 0 0.1
0.2125 0 0.1
0.225 0 0.1
0.2375 0 0.1
0.25 0 0.1
0.2625 0 0.1
0.275 0 0.1
0.2875 0 0.1
0.3 0 0.1
0.3125 0 0.1
0.325 0 0.1
0.3375 0 0.1
0.35 0 0.1
0.3625 0 0.1
0.375 0 0.1
0.3875 0 0.1
0.4 0 0.1
0.4125 0 0.1
0.425 0 0.1
0.4375 0 0.1
0.45 0 0.1
0.4625 0 0.1
0.475 0 0.1
0.4875 0 0.1
0.5 0 0.1
0.5125 0 0.1
0.525 0 0.1
0.5375 0 0.1
0.55 0 0.1
0.5625 0 0.1
0.575 0 0.1
0.5875 0 0.1
0.6 0 0.1
0.6125 0 0.1
0.625 0 0.1
0.6375 0 0.1
0.65 0 0.1
0.6625 0 0.1
0.675 0 0.1
0.6875 0 0.1
0.7 0 0.1
0.7125 0 0.1
0.725 0 0.1
0.7375 0 0.1
0.75 0 0.1
0.7625 0 0.1
0.775 0 0.1
0.7875 0 0.1
0.8 0 0.1
0.2 0.0125 0.1
0.2125 0.0125 0.1
0.225 0.0125 0.1
0.2375 0.0125 0.1
0.25 0.0125 0.1
0.2625 0.0125 0.1
0.275 0.0125 0.1
0.2875 0.0125 0.1
0.3 0.0125 0.1
0.3125 0.0125 0.1
0.325 0.0125 0.1
0.3375 0.0125 0.1
0.35 0.0125 0.1
0.3625 0.0125 0.1
0.375 0.0125 0.1
0.3875 0.0125 0.1
0.4 0.0125 0.1
0.4125 0.0125 0.1
0.425 0.0125 0.1
0.4375 0.0125 0.1
0.45 0.0125 0.1
0.4625 0.0125 0.1
0.475 0.0125 0.1
0.4875 0.0125 0.1
0.5 0.0125 0.1
0.5125 0.0125 0.1
0.525 0.0125 0.1
0.5375 0.0125 0.1
0.55 0.0125 0.1
0.5625 0.0125 0.1
0.575 0.0125 0.1
0.5875 0.0125 0.1
0.6 0.0125 0.1
0.6125 0.0125 0.1
0.625 0.0125 0.1
0.6375 0.0125 0.1
0.65 0.0125 0.1
0.6625 0.0125 0.1
0.675 0.0125 0.1
0.6875 0.0125 0.1
0.7 0.0125 0.1
0.7125 0.0125 0.1
0.725 0.0125 0.1
0.7375 0.0125 0.1
0.75 0.0125 0.1
0.7625 0.0125 0.1
0.775 0.0125 0.1
0.7875 0.0125 0.1
0.8 0.0125 0.1
0.2 0.025 0.1
0.2125 0.025 0.1
0.225 0.025 0.1
0.2375 0.025 0.1
0.25 0.025 0.1
0.2625 0.025 0.1
0.275 0.025 0.1
0.2875 0.025 0.1
0.3 0.025 0.1
0.3125 0.025 0.1
0.325 0.025 0.1
0.3375 0.025 0.1
0.35 0.025 0.1
0.3625 0.025 0.1
0.375 0.025 0.1
0.3875 0.025 0.1
0.4 0.025 0.1
0.4125 0.025 0.1
0.425 0.025 0.1
0.4375 0.025 0.1
0.45 0.025 0.1
0.4625 0.025 0.1
0.475 0.025 0.1
0.4875 0.025 0.1
0.5 0.025 0.1
0.5125 0.025 0.1
0.525 0.025 0.1
0.5375 0.025 0.1
0.55 0.025 0.1
0.5625 0.025 0.1
0.575 0.025 0.1
0.5875 0.025 0.1
0.6 0.025 0.1
0.6125 0.025 0.1
0.625 0.025 0.1
0.6375 0.025 0.1
0.65 0.025 0.1
0.6625 0.025 0.1
0.675 0.025 0.1
0.6875 0.025 0.1
0.7 0.025 0.1
0.7125 0.025 0.1
0.725 0.025 0.1
0.7375 0.025 0.1
0.75 0.025 0.1
0.7625 0.025 0.1
0.775 0.025 0.1
0.7875 0.025 0.1
0.8 0.025 0.1
0.2 0.0375 0.1
0.2125 0.0375 0.1
0.225 0.0375 0.1
0.2375 0.0375 0.1
0.25 0.0375 0.1
0.2625 0.0375 0.1
0.275 0.0375 0.1
0.2875 0.0375 0.1
0.3 0.0375 0.1
0.3125 0.0375 0.1
0.325 0.0375 0.1
0.3375 0.0375 0.1
0.35 0.0375 0.1
0.3625 0.0375 0.1
0.375 0.0375 0.1
0.3875 0.0375 0.1
0.4 0.0375 0.1
0.4125 0.0375 0.1
0.425 0.0375 0.1
0.4375 0.0375 0.1
0.45 0.0375 0.1
0.4625 0.0375 0.1
0.475 0.0375 0.1
0.4875 0.0375 0.1
0.5 0.0375 0.1
0.5125 0.0375 0.1
0.525 0.0375 0.1
0.5375 0.0375 0.1
0.55 0.0375 0.1
0.5625 0.0375 0.1
0.575 0.0375 0.1
0.5875 0.0375 0.1
0.6 0.0375 0.1
0.6125 0.0375 0.1
0.625 0.0375 0.1
0.6375 0.0375 0.1
0.65 0.0375 0.1
0.6625 0.0375 0.1
0.675 0.0375 0.1
0.6875 0.0375 0.1
0.7 0.0375 0.1
0.7125 0.0375 0.1
0.725 0.0375 0.1
0.7375 0.0375 0.1
0.75 0.0375 0.1
0.7625 0.0375 0.1
0.775 0.0375 0.1
0.7875 0.0375 0.1
0.8 0.0375 0.1
0.2 0.05 0.1
0.2125 0.05 0.1
0.225 0.05 0.1
0.2375 0.05 0.1
0.25 0.05 0.1
0.2625 0.05 0.1
0.275 0.05 0.1
0.2875 0.05 0.1
0.3 0.05 0.1
0.3125 0.05 0.1
0.325 0.05 0.1
0.3375 0.05 0.1
0.35 0.05 0.1
0.3625 0.05 0.1
0.375 0.05 0.1
0.3875 0.05 0.1
0.4 0.05 0.1
0.4125 0.05 0.1
0.425 0.05 0.1
0.4375 0.05 0.1
0.45 0.05 0.1
0.4625 0.05 0.1
0.475 0.05 0.1
0.4875 0.05 0.1
0.5 0.05 0.1
0.5125 0.05 0.1
0.525 0.05 0.1
0.5375 0.05 0.1
0.55 0.05 0.1
0.5625 0.05 0.1
0.575 0.05 0.1
0.5875 0.05 0.1
0.6 0.05 0.1
0.6125 0.05 0.1
0.625 0.05 0.1
0.6375 0.05 0.1
0.65 0.05 0.1
0.6625 0.05 0.1
0.675 0.05 0.1
0.6875 0.05 0.1
0.7 0.05 0.1
0.7125 0.05 0.1
0.725 0.05 0.1
0.7375 0.05 0.1
0.75 0.05 0.1
0.7625 0.05 0.1
0.775 0.05 0.1
0.7875 0.05 0.1
0.8 0.05 0.1
0.2 0.0625 0.1
0.2125 0.0625 0.1
0.225 0.0625 0.1
0.2375 0.0625 0.1
0.25 0.0625 0.1
0.2625 0.0625 0.1
0.275 0.0625 0.1
0.2875 0.0625 0.1
0.3 0.0625 0.1
0.3125 0.0625 0.1
0.325 0.0625 0.1
0.3375 0.0625 0.1
0.35 0.0625 0.1
0.3625 0.0625 0.1
0.375 0.0625 0.1
0.3875 0.0625 0.1
0.4 0.0625 0.1
0.4125 0.0625 0.1
0.425 0.0625 0.1
0.4375 0.0625 0.1
0.45 0.0625 0.1
0.4625 0.0625 0.1
0.475 0.0625 0.1
0.4875 0.0625 0.1
0.5 0.0625 0.1
0.5125 0.0625 0.1
0.525 0.0625 0.1
0.5375 0.0625 0.1
0.55 0.0625 0.1
0.5625 0.0625 0.1
0.575 0.0625 0.1
0.5875 0.0625 0.1
0.6 0.0625 0.1
0.6125 0.0625 0.1
0.625 0.0625 0.1
0.6375 0.0625 0.1
0.65 0.0625 0.1
0.6625 0.0625 0.1
0.675 0.0625 0.1
0.6875 0.0625 0.1
0.7 0.0625 0.1
0.7125 0.0625 0.1
0.725 0.0625 0.1
0.7375 0.0625 0.1
0.75 0.0625 0.1
0.7625 0.0625 0.1
0.775 0.0625 0.1
0.7875 0.0625 0.1
0.8 0.0625 0.1
0.2 0.075 0.1
0.2125 0.075 0.1
0.225 0.075 0.1
0.2375 0.075 0.1
0.25 0.075 0.1
0.2625 0.075 0.1
0.275 0.075 0.1
0.2875 0.075 0.1
0.3 0.075 0.1
0.3125 0.075 0.1
0.325 0.075 0.1
0.3375 0.075 0.1
0.35 0.075 0.1
0.3625 0.075 0.1
0.375 0.075 0.1
0.3875 0.075 0.1
0.4 0.075 0.1
0.4125 0.075 0.1
0.425 0.075 0.1
0.4375 0.075 0.1
0.45 0.075 0.1
0.4625 0.075 0.1
0.475 0.075 0.1
0.4875 0.075 0.1
0.5 0.075 0.1
0.5125 0.075 0.1
0.525 0.075 0.1
0.5375 0.075 0.1
0.55 0.075 0.1
0.5625 0.075 0.1
0.575 0.075 0.1
0.5875 0.075 0.1
0.6 0.075 0.1
0.6125 0.075 0.1
0.625 0.075 0.1
0.6375 0.075 0.1
0.65 0.075 0.1
[...]
    <PointData>
      <DataArray type="Float64" NumberOfComponents="3" Name="Velocity" format="ascii">
0 0 0
0 0 0
0 0 0
0 0 0
0 0 0
0 0 0
0 0 0
0 0 0
0 0 0
0 0 0
0 0 0
0 0 0
0 0 0
0 0 0
0 0 0
0 0 0
0 0 0
0 0 0
2.27025e-05 -2.27239e-05 0
5.25772e-05 -2.61054e-05 0
7.48487e-05 -1.57038e-05 0
7.47415e-05 2.92146e-06 0
4.64419e-05 2.65787e-05 0
-1.58637e-05 5.20759e-05 0
-0.000112841 7.79337e-05 0
-0.000245154 0.000102672 0
-0.000410904 0.000126353 0
-0.000608191 0.000149036 0
-0.000834288 0.000169444 0
-0.00108647 0.000186298 0
-0.00136085 0.000201189 0
-0.00165355 0.000215709 0
-0.00196414 0.0002273 0
-0.00229223 0.000233406 0
0 0 0
2.63539e-05 -5.25935e-05 0
5.44819e-05 -5.4079e-05 0
6.25828e-05 -1.92743e-05 0
2.88553e-05 3.70024e-05 0
-5.6002e-05 0.000106832 0
-0.00020129 0.000182296 0
-0.000408357 0.000259718 0
-0.00067855 0.000335423 0
-0.00100878 0.000407224 0
-0.00139597 0.000472934 0
-0.00183552 0.000532641 0
-0.00232282 0.000586432 0
-0.00285368 0.00063387 0
-0.00342393 0.000674517 0
-0.00402799 0.000713072 0
-0.00466028 0.000754234 0
0 0 0
1.64039e-05 -7.52629e-05 0
2.06642e-05 -6.24812e-05 0
-1.12748e-05 1.29954e-05 0
-0.000103469 0.000125818 0
-0.000266508 0.00026274 0
-0.000510982 0.000410517 0
-0.000838836 0.00056244 0
-0.00125201 0.000711799 0
-0.00174739 0.000854077 0
-0.00232184 0.000984757 0
-0.00296844 0.0011038 0
-0.00368027 0.00121117 0
-0.00445251 0.00130654 0
-0.00528037 0.00138957 0
-0.00615486 0.00146595 0
-0.00706699 0.00154134 0
0 0 0
-1.69798e-06 -7.63859e-05 0
-3.39261e-05 -2.98727e-05 0
-0.000121201 0.000104812 0
-0.00028804 0.000292942 0
-0.000544251 0.000516281 0
-0.00089964 0.000756596 0
-0.00135656 0.00100319 0
-0.00191737 0.00124535 0
-0.00258048 0.00147838 0
-0.00334429 0.00169757 0
-0.0041978 0.00189713 0
-0.00513003 0.00207127 0
-0.00613132 0.00222768 0
-0.00719205 0.00237402 0
-0.00830806 0.00249456 0
-0.00947519 0.00257357 0
0 0 0
-2.46944e-05 -5.00427e-05 0
-0.000101984 5.28497e-05 0
-0.000255273 0.000266523 0
-0.000507964 0.000548823 0
-0.00086812 0.000876673 0
-0.00134381 0.001227 0
-0.00193725 0.0015857 0
-0.00265069 0.00193869 0
-0.003482 0.00227989 0
-0.00442908 0.00260323 0
-0.00548161 0.00289767 0
-0.00662929 0.00315218 0
-0.00785513 0.00337834 0
-0.00914219 0.00358773 0
-0.0104948 0.00376723 0
-0.0119175 0.00390371 0
0 0 0
-4.93281e-05 9.68694e-06 0
-0.000176205 0.000194789 0
-0.000401566 0.000508475 0
-0.000746343 0.00090391 0
-0.001217 0.00135313 0
-0.00182002 0.00182818 0
-0.00255662 0.00231372 0
-0.00342804 0.00279445 0
-0.00442595 0.00325839 0
-0.00554201 0.00369361 0
-0.00677788 0.00409046 0
-0.00813522 0.0044393 0
-0.00958894 0.00473954 0
-0.011114 0.00499058 0
-0.0127224 0.00525228 0
-0.0144264 0.0055845 0
0 0 0
-7.47417e-05 0.00010364 0
-0.000253437 0.000398534 0
-0.000554236 0.000834679 0
-0.000995289 0.00136207 0
-0.00158102 0.00194968 0
-0.00231585 0.00256646 0
-0.0031983 0.00319279 0
-0.00422692 0.00380904 0
-0.00539233 0.00440404 0
-0.0066852 0.00496664 0
-0.00811088 0.00548321 0
-0.00967476 0.00594009 0
-0.0113502 0.00632701 0
-0.0131107 0.0066337 0
-0.0149674 0.00697886 0
-0.0169315 0.00748122 0
0 0 0
-0.000100078 0.000232652 0
-0.000330526 0.000666671 0
-0.000707439 0.00124915 0
-0.00124691 0.00192718 0
-0.00195028 0.00267033 0
-0.00281885 0.00344817 0
-0.00384593 0.00422844 0
-0.00502481 0.00497889 0
-0.0063612 0.00570699 0
-0.00786079 0.00642025 0
-0.0095049 0.00708359 0
-0.0112749 0.00766195 0
-0.0131566 0.00815646 0
-0.0151358 0.00856821 0
-0.0172065 0.00897612 0
-0.0193625 0.00945911 0
0 0 0
-0.000125014 0.000396322 0
-0.000406087 0.000998083 0
-0.000858717 0.00175133 0
-0.0014984 0.00260212 0
-0.0023211 0.0035182 0
-0.00332278 0.00446732 0
-0.00449562 0.00541306 0
-0.00583186 0.00631897 0
-0.00734669 0.00720086 0
-0.00905534 0.00807455 0
-0.0109168 0.00889085 0
-0.01289 0.0096006 0
-0.0149702 0.0102147 0
-0.0171526 0.0107441 0
-0.0194172 0.0112051 0
-0.0217439 0.0116142 0
0 0 0
-0.000149229 0.00059425 0
-0.000478735 0.00139165 0
-0.00100561 0.00234067 0
-0.00174695 0.00338978 0
-0.00268984 0.0044964 0
-0.00382137 0.00561796 0
-0.0051435 0.00673904 0
-0.00665817 0.00784427 0
-0.00836295 0.00891927 0
-0.0102554 0.00994968 0
-0.0123033 0.0109042 0
-0.0144746 0.0117517 0
-0.0167535 0.0124885 0
-0.0191245 0.0131112 0
-0.021577 0.0136269 0
-0.0241005 0.0140426 0
0 0 0
-0.000172351 0.000824526 0
-0.000548968 0.00184615 0
-0.00114821 0.00301616 0
-0.00198843 0.00428582 0
-0.00304997 0.005602 0
-0.00431314 0.00691155 0
-0.00578771 0.00822308 0
-0.00748347 0.00954522 0
-0.00937617 0.0108281 0
-0.0114416 0.0120218 0
-0.0136633 0.0131156 0
-0.0160249 0.0140985 0
-0.0184996 0.0149536 0
-0.0210602 0.0156638 0
-0.023706 0.0162455 0
-0.0264362 0.0167149 0
0 0 0
-0.000194014 0.00108524 0
-0.000617282 0.00236037 0
-0.0012866 0.00377678 0
-0.00221876 0.00528587 0
-0.00339501 0.00683201 0
-0.00479656 0.00835957 0
-0.0064264 0.00988186 0
-0.00828748 0.0114122 0
-0.0103525 0.0128932 0
-0.0125943 0.0142671 0
-0.0149952 0.0155166 0
-0.0175375 0.0166243 0
-0.0202017 0.0175855 0
-0.0229685 0.0183959 0
-0.0258242 0.0190648 0
-0.028755 0.0196017 0
0 0 0
-0.000214391 0.00137633 0
-0.000684294 0.00293234 0
-0.00142268 0.00461901 0
-0.0024425 0.00638735 0
-0.00372883 0.00818323 0
-0.00526669 0.00995254 0
-0.00704889 0.0117042 0
-0.0090682 0.013447 0
-0.0112989 0.015125 0
-0.0137152 0.0166821 0
-0.0162949 0.0180927 0
-0.0190159 0.0193311 0
-0.0218682 0.0204037 0
-0.024842 0.0213169 0
-0.0279088 0.0220734 0
-0.0310403 0.0226757 0
0 0 0
-0.000233657 0.00169775 0
-0.000750621 0.00356011 0
-0.00155833 0.00553933 0
-0.00266422 0.00758765 0
-0.00405529 0.00965241 0
-0.00571856 0.011681 0
-0.00764451 0.0136788 0
-0.00982365 0.0156512 0
-0.012222 0.0175342 0
-0.0148055 0.0192634 0
-0.0175581 0.0208291 0
-0.0204637 0.0222211 0
-0.0235071 0.0234275 0
-0.0266729 0.0244363 0
-0.029937 0.0252595 0
-0.0332753 0.0259092 0
0 0 0
-0.000253404 0.00204754 0
-0.00081691 0.00424584 0
-0.00169359 0.00654204 0
-0.00288652 0.00888326 0
-0.00438649 0.0112345 0
-0.00618428 0.0135609 0
-0.00825802 0.0158379 0
-0.0105858 0.0180412 0
-0.0131377 0.0201189 0
-0.0158837 0.0220195 0
-0.0188106 0.0237453 0
-0.0219054 0.0252988 0
-0.0251427 0.0266486 0
-0.0284975 0.0277632 0
-0.0319581 0.0286634 0
-0.0355128 0.0293698 0
0 0 0
-0.000275225 0.00242376 0
-0.000883809 0.00499169 0
-0.00182849 0.00763144 0
-0.00311202 0.0102707 0
-0.00473449 0.0129246 0
-0.006696 0.0156084 0
-0.00893417 0.018214 0
-0.0113866 0.0206333 0
-0.0140618 0.0228777 0
-0.0169682 0.0249587 0
-0.0200784 0.0268609 0
-0.0233649 0.0285687 0
-0.026799 0.0300586 0
-0.0303519 0.0313069 0
-0.0340215 0.0323252 0
-0.0378059 0.0331251 0
0 0 0
0 0 0
0 0 0
0 0 0
0 0 0
0 0 0
0 0 0
0 0 0
0 0 0
0 0 0
0 0 0
0 0 0
0 0 0
0 0 0
0 0 0
0 0 0
0 0 0
0 0 0
0 0 0
0 0 0
0 0 0
0 0 0
0 0 0
0 0 0
0 0 0
0 0 0
0 0 0
0 0 0
0 0 0
0 0 0
0 0 0
0 0 0
0 0 0
0 0 0
0 0 0
0 0 0
0 0 0
0 0 0
0 0 0
0 0 0
0 0 0
0 0 0
0 0 0
0 0 0
0 0 0
0 0 0
0 0 0
0 0 0
0 0 0
-0.00229223 0.000233406 0
-0.00263886 0.000248095 0
-0.00298915 0.000253193 0
-0.00334525 0.000254325 0
-0.00370933 0.000257115 0
-0.00407538 0.000258638 0
-0.0044374 0.000255968 0
-0.00479461 0.000250987 0
-0.00514625 0.000245578 0
-0.00548906 0.000238842 0
-0.0058198 0.00022988 0
-0.00613692 0.000219304 0
-0.00643884 0.000207724 0
-0.00672356 0.000194982 0
-0.00698907 0.000180916 0
-0.00723399 0.000165755 0
-0.00745697 0.000149726 0
-0.00765674 0.000132877 0
-0.00783206 0.000115256 0
-0.00798207 9.69943e-05 0
-0.0081059 7.82251e-05 0
-0.00820295 5.9041e-05 0
-0.0082726 3.95345e-05 0
-0.00831456 1.98171e-05 0
-0.00832855 -1.96748e-16 0
-0.00831456 -1.98171e-05 0
-0.0082726 -3.95345e-05 0
-0.00820295 -5.9041e-05 0
-0.0081059 -7.82251e-05 0
-0.00798207 -9.69943e-05 0
-0.00783206 -0.000115256 0
-0.00765674 -0.000132877 0
-0.00745697 -0.000149726 0
-0.00723399 -0.000165755 0
-0.00698907 -0.000180916 0
-0.00672356 -0.000194982 0
-0.00643884 -0.000207724 0
-0.00613692 -0.000219304 0
-0.0058198 -0.00022988 0
-0.00548906 -0.000238842 0
-0.00514625 -0.000245578 0
-0.00479461 -0.000250987 0
-0.0044374 -0.000255968 0
-0.00407538 -0.000258638 0
-0.00370933 -0.000257115 0
-0.00334525 -0.000254325 0
-0.00298915 -0.000253193 0
-0.00263886 -0.000248095 0
-0.00229223 -0.000233406 0
-0.00466028 0.000754234 0
-0.00530942 0.000769918 0
-0.00598435 0.0007894 0
-0.00667426 0.000805479 0
-0.00736832 0.000810949 0
-0.00806347 0.00080883 0
-0.0087566 0.000802139 0
-0.00944193 0.000790238 0
-0.0101136 0.00077249 0
-0.0107677 0.000749455 0
-0.0114002 0.000721695 0
-0.012007 0.000689449 0
-0.0125842 0.000652956 0
-0.0131283 0.000612511 0
-0.0136361 0.000568411 0
-0.0141046 0.000521002 0
-0.014531 0.000470627 0
-0.0149131 0.000417603 0
-0.0152484 0.000362248 0
-0.0155354 0.000304902 0
-0.0157723 0.000245907 0
-0.0159579 0.00018559 0
-0.0160911 0.000124277 0
-0.0161714 6.23023e-05 0
-0.0161982 -5.67224e-16 0
-0.0161714 -6.23023e-05 0
-0.0160911 -0.000124277 0
-0.0159579 -0.00018559 0
-0.0157723 -0.000245907 0
-0.0155354 -0.000304902 0
-0.0152484 -0.000362248 0
-0.0149131 -0.000417603 0
-0.014531 -0.000470627 0
-0.0141046 -0.000521002 0
-0.0136361 -0.000568411 0
-0.0131283 -0.000612511 0
-0.0125842 -0.000652956 0
-0.012007 -0.000689449 0
-0.0114002 -0.000721695 0
-0.0107677 -0.000749455 0
-0.0101136 -0.00077249 0
-0.00944193 -0.000790238 0
-0.0087566 -0.000802139 0
-0.00806347 -0.00080883 0
-0.00736832 -0.000810949 0
-0.00667426 -0.000805479 0
-0.00598435 -0.0007894 0
-0.00530942 -0.000769918 0
-0.00466028 -0.000754234 0
-0.00706699 0.00154134 0
-0.00800267 0.00157985 0
-0.00897713 0.00161938 0
-0.00997208 0.00164932 0
-0.0109692 0.00165903 0
-0.0119668 0.0016543 0
-0.0129631 0.00164092 0
-0.0139484 0.00161689 0
-0.014913 0.00158023 0
-0.0158518 0.00153271 0
-0.0167603 0.0014761 0
-0.017632 0.00141044 0
-0.0184608 0.00133575 0
-0.0192422 0.0012529 0
-0.0199714 0.00116276 0
-0.0206444 0.00106588 0
-0.0212568 0.000962845 0
-0.0218055 0.000854357 0
-0.0222872 0.000741134 0
-0.0226994 0.000623841 0
-0.0230396 0.000503145 0
-0.0233063 0.000379731 0
-0.0234977 0.000254284 0
-0.023613 0.000127482 0
-0.0236515 -1.16112e-15 0
-0.023613 -0.000127482 0
-0.0234977 -0.000254284 0
-0.0233063 -0.000379731 0
-0.0230396 -0.000503145 0
-0.0226994 -0.000623841 0
-0.0222872 -0.000741134 0
-0.0218055 -0.000854357 0
-0.0212568 -0.000962845 0
-0.0206444 -0.00106588 0
-0.0199714 -0.00116276 0
-0.0192422 -0.0012529 0
-0.0184608 -0.00133575 0
-0.017632 -0.00141044 0
-0.0167603 -0.0014761 0
-0.0158518 -0.00153271 0
-0.014913 -0.00158023 0
-0.0139484 -0.00161689 0
-0.0129631 -0.00164092 0
-0.0119668 -0.0016543 0
-0.0109692 -0.00165903 0
-0.00997208 -0.00164932 0
-0.00897713 -0.00161938 0
-0.00800267 -0.00157985 0
-0.00706699 -0.00154134 0
-0.00947519 0.00257357 0
-0.0107096 0.00269226 0
-0.011959 0.0027539 0
-0.0132238 0.00278171 0
-0.0145042 0.0027989 0
-0.015788 0.00279879 0
-0.0170625 0.00277471 0
-0.0183207 0.00273007 0
-0.019555 0.00266828 0
-0.0207572 0.00258946 0
-0.021919 0.00249375 0
-0.0230334 0.00238227 0
-0.0240935 0.00225617 0
-0.0250929 0.00211648 0
-0.0260254 0.00196423 0
-0.0268858 0.00180055 0
-0.0276689 0.00162653 0
-0.0283705 0.00144332 0
-0.0289864 0.00125207 0
-0.0295135 0.00105393 0
-0.0299486 0.000850038 0
-0.0302895 0.00064155 0
-0.0305343 0.000429614 0
-0.0306818 0.000215381 0
-0.0307309 -2.02812e-15 0
-0.0306818 -0.000215381 0
-0.0305343 -0.000429614 0
-0.0302895 -0.00064155 0
-0.0299486 -0.000850038 0
-0.0295135 -0.00105393 0
-0.0289864 -0.00125207 0
-0.0283705 -0.00144332 0
-0.0276689 -0.00162653 0
-0.0268858 -0.00180055 0
-0.0260254 -0.00196423 0
-0.0250929 -0.00211648 0
-0.0240935 -0.00225617 0
-0.0230334 -0.00238227 0
-0.021919 -0.00249375 0
-0.0207572 -0.00258946 0
-0.019555 -0.00266828 0
-0.0183207 -0.00273007 0
-0.0170625 -0.00277471 0
-0.015788 -0.00279879 0
-0.0145042 -0.0027989 0
-0.0132238 -0.00278171 0
-0.011959 -0.0027539 0
-0.0107096 -0.00269226 0
-0.00947519 -0.00257357 0
-0.0119175 0.00390371 0
-0.0134219 0.00406348 0
-0.0149269 0.00414798 0
-0.0164452 0.0041877 0
-0.0179896 0.00421312 0
-0.019539 0.00421263 0
-0.0210719 0.00417462 0
-0.0225832 0.00410579 0
-0.0240677 0.00401283 0
-0.0255139 0.00389472 0
-0.0269103 0.00375045 0
-0.0282492 0.00358231 0
-0.029523 0.00339263 0
-0.030724 0.00318266 0
-0.0318443 0.00295366 0
-0.0328778 0.00270742 0
-0.0338185 0.00244574 0
-0.0346613 0.00217029 0
-0.035401 0.00188271 0
-0.036034 0.00158476 0
-0.0365566 0.00127818 0
-0.0369661 0.00096469 0
-0.03726 0.000646007 0
-0.0374371 0.000323865 0
-0.0374961 -3.0797e-15 0
-0.0374371 -0.000323865 0
-0.03726 -0.000646007 0
-0.0369661 -0.00096469 0
-0.0365566 -0.00127818 0
-0.036034 -0.00158476 0
-0.035401 -0.00188271 0
-0.0346613 -0.00217029 0
-0.0338185 -0.00244574 0
-0.0328778 -0.00270742 0
-0.0318443 -0.00295366 0
-0.030724 -0.00318266 0
-0.029523 -0.00339263 0
-0.0282492 -0.00358231 0
-0.0269103 -0.00375045 0
-0.0255139 -0.00389472 0
-0.0240677 -0.00401283 0
-0.0225832 -0.00410579 0
-0.0210719 -0.00417462 0
-0.019539 -0.00421263 0
-0.0179896 -0.00421312 0
-0.0164452 -0.0041877 0
-0.0149269 -0.00414798 0
-0.0134219 -0.00406348 0
-0.0119175 -0.00390371 0
-0.0144264 0.0055845 0
-0.016131 0.00564981 0
-0.0178774 0.00575664 0
-0.0196521 0.00585235 0
-0.0214417 0.00588428 0
-0.0232318 0.00586618 0
-0.0250082 0.00581178 0
-0.0267606 0.00572008 0
-0.028479 0.00559008 0
-0.0301519 0.00542349 0
-0.0317679 0.00522201 0
-0.0333173 0.00498794 0
-0.0347905 0.00472356 0
-0.0361791 0.00443087 0
-0.0374744 0.00411184 0
-0.0386693 0.00376893 0
-0.0397567 0.00340456 0
-0.0407307 0.00302106 0
-0.0415857 0.0026207 0
-0.0423172 0.00220593 0
-0.0429211 0.00177916 0
-0.0433942 0.00134279 0
-0.0437339 0.000899201 0
-0.0439386 0.000450798 0
-0.0440068 -4.22732e-15 0
-0.0439386 -0.000450798 0
-0.0437339 -0.000899201 0
-0.0433942 -0.00134279 0
-0.0429211 -0.00177916 0
-0.0423172 -0.00220593 0
-0.0415857 -0.0026207 0
-0.0407307 -0.00302106 0
-0.0397567 -0.00340456 0
-0.0386693 -0.00376893 0
-0.0374744 -0.00411184 0
-0.0361791 -0.00443087 0
-0.0347905 -0.00472356 0
-0.0333173 -0.00498794 0
-0.0317679 -0.00522201 0
-0.0301519 -0.00542349 0
-0.028479 -0.00559008 0
-0.0267606 -0.00572008 0
-0.0250082 -0.00581178 0
-0.0232318 -0.00586618 0
-0.0214417 -0.00588428 0
-0.0196521 -0.00585235 0
-0.0178774 -0.00575664 0
-0.016131 -0.00564981 0
-0.0144264 -0.0055845 0
-0.0169315 0.00748122 0
-0.0188224 0.00747292 0
-0.0208007 0.00760725 0
-0.0228221 0.00775688 0
-0.0248422 0.00779452 0
-0.0268574 0.00775784 0
-0.028864 0.00768453 0
-0.0308449 0.00756572 0
-0.0327832 0.00739256 0
-0.0346686 0.00716993 0
-0.0364906 0.0069027 0
-0.0382374 0.00659299 0
-0.0398973 0.00624294 0
-0.0414611 0.00585545 0
-0.0429199 0.00543347 0
-0.0442655 0.00498008 0
-0.0454896 0.00449841 0
-0.046586 0.00399151 0
-0.0475483 0.00346243 0
-0.0483717 0.00291437 0
-0.0490512 0.00235051 0
-0.0495837 0.00177398 0
-0.0499659 0.00118793 0
-0.0501962 0.000595545 0
-0.0502729 -5.39867e-15 0
-0.0501962 -0.000595545 0
-0.0499659 -0.00118793 0
-0.0495837 -0.00177398 0
-0.0490512 -0.00235051 0
-0.0483717 -0.00291437 0
-0.0475483 -0.00346243 0
-0.046586 -0.00399151 0
-0.0454896 -0.00449841 0
-0.0442655 -0.00498008 0
-0.0429199 -0.00543347 0
-0.0414611 -0.00585545 0
-0.0398973 -0.00624294 0
-0.0382374 -0.00659299 0
-0.0364906 -0.0069027 0
-0.0346686 -0.00716993 0
-0.0327832 -0.00739256 0
-0.0308449 -0.00756572 0
-0.028864 -0.00768453 0
-0.0268574 -0.00775784 0
-0.0248422 -0.00779452 0
-0.0228221 -0.00775688 0
-0.0208007 -0.00760725 0
-0.0188224 -0.00747292 0
-0.0169315 -0.00748122 0
-0.0193625 0.00945911 0
-0.0214814 0.00955446 0
-0.0236869 0.00972716 0
-0.0259328 0.00988255 0
-0.028173 0.00992599 0
-0.0304064 0.00988602 0
-0.0326317 0.00979121 0
-0.034828 0.0096355 0
-0.0369746 0.00941282 0
-0.0390611 0.00912823 0
-0.0410771 0.00878679 0
-0.0430094 0.00839135 0
-0.0448445 0.00794474 0
-0.046573 0.00745076 0
-0.048185 0.00691319 0
-0.0496715 0.00633589 0
-0.0510236 0.00572269 0
-0.0522344 0.00507752 0
-0.053297 0.00440431 0
-0.054206 0.00370705 0
-0.0549562 0.00298973 0
-0.055544 0.00225636 0
-0.0559658 0.00151093 0
-0.05622 0.000757475 0
-0.0563047 -6.52151e-15 0
-0.05622 -0.000757475 0
-0.0559658 -0.00151093 0
-0.055544 -0.00225636 0
-0.0549562 -0.00298973 0
-0.054206 -0.00370705 0
-0.053297 -0.00440431 0
-0.0522344 -0.00507752 0
-0.0510236 -0.00572269 0
-0.0496715 -0.00633589 0
-0.048185 -0.00691319 0
-0.046573 -0.00745076 0
-0.0448445 -0.00794474 0
-0.0430094 -0.00839135 0
-0.0410771 -0.00878679 0
-0.0390611 -0.00912823 0
-0.0369746 -0.00941282 0
-0.034828 -0.0096355 0
-0.0326317 -0.00979121 0
-0.0304064 -0.00988602 0
-0.028173 -0.00992599 0
-0.0259328 -0.00988255 0
-0.0236869 -0.00972716 0
-0.0214814 -0.00955446 0
-0.0193625 -0.00945911 0
-0.0217439 0.0116142 0
-0.0241035 0.0118635 0
-0.0265281 0.0120768 0
-0.0289842 0.0122231 0
-0.031438 0.0122712 0
-0.0338844 0.0122306 0
-0.0363188 0.0121108 0
-0.0387193 0.0119116 0
-0.0410644 0.0116331 0
-0.0433427 0.0112797 0
-0.0455426 0.0108559 0
-0.0476501 0.0103654 0
-0.0496509 0.0098121 0
-0.0515346 0.00920075 0
-0.0532909 0.00853599 0
-0.0549101 0.00782246 0
-0.0563825 0.00706479 0
-0.0577008 0.00626786 0
-0.0588575 0.00543652 0
-0.0598469 0.00457566 0
-0.0606633 0.00369013 0
-0.0613029 0.00278487 0
-0.061762 0.00186481 0
-0.0620386 0.000934876 0
-0.0621308 -7.7497e-15 0
-0.0620386 -0.000934876 0
-0.061762 -0.00186481 0
-0.0613029 -0.00278487 0
-0.0606633 -0.00369013 0
-0.0598469 -0.00457566 0
-0.0588575 -0.00543652 0
-0.0577008 -0.00626786 0
-0.0563825 -0.00706479 0
-0.0549101 -0.00782246 0
-0.0532909 -0.00853599 0
-0.0515346 -0.00920075 0
-0.0496509 -0.0098121 0
-0.0476501 -0.0103654 0
-0.0455426 -0.0108559 0
-0.0433427 -0.0112797 0
-0.0410644 -0.0116331 0
-0.0387193 -0.0119116 0
-0.0363188 -0.0121108 0
-0.0338844 -0.0122306 0
-0.031438 -0.0122712 0
-0.0289842 -0.0122231 0
-0.0265281 -0.0120768 0
-0.0241035 -0.0118635 0
-0.0217439 -0.0116142 0
-0.0241005 0.0140426 0
-0.026684 0.014369 0
-0.0293168 0.0146165 0
-0.0319765 0.0147721 0
-0.0346408 0.0148226 0
-0.037297 0.0147715 0
-0.0399327 0.0146221 0
-0.0425283 0.0143762 0
-0.0450643 0.0140357 0
-0.0475269 0.0136058 0
-0.0499023 0.0130915 0
-0.0521763 0.0124974 0
-0.0543347 0.0118282 0
-0.0563662 0.0110894 0
-0.0582593 0.0102868 0
-0.060004 0.00942588 0
-0.0615903 0.00851208 0
-0.0630101 0.00755126 0
-0.0642558 0.00654926 0
-0.0653211 0.0055119 0
-0.0662 0.00444499 0
-0.0668885 0.00335443 0
-0.0673826 0.00224615 0
-0.0676803 0.00112604 0
-0.0677796 -9.23739e-15 0
-0.0676803 -0.00112604 0
-0.0673826 -0.00224615 0
-0.0668885 -0.00335443 0
-0.0662 -0.00444499 0
-0.0653211 -0.0055119 0
-0.0642558 -0.00654926 0
-0.0630101 -0.00755126 0
-0.0615903 -0.00851208 0
-0.060004 -0.00942588 0
-0.0582593 -0.0102868 0
-0.0563662 -0.0110894 0
-0.0543347 -0.0118282 0
-0.0521763 -0.0124974 0
-0.0499023 -0.0130915 0
-0.0475269 -0.0136058 0
-0.0450643 -0.0140357 0
-0.0425283 -0.0143762 0
-0.0399327 -0.0146221 0
-0.037297 -0.0147715 0
-0.0346408 -0.0148226 0
-0.0319765 -0.0147721 0
-0.0293168 -0.0146165 0
-0.026684 -0.014369 0
-0.0241005 -0.0140426 0
-0.0264362 0.0167149 0
-0.0292292 0.0170839 0
-0.0320636 0.017364 0
-0.0349239 0.0175381 0
-0.0377946 0.0175889 0
-0.0406556 0.0175201 0
-0.0434868 0.0173356 0
-0.0462711 0.0170376 0
-0.0489913 0.0166282 0
-0.0516314 0.0161137 0
-0.0541753 0.0155003 0
-0.0566089 0.0147934 0
-0.0589182 0.0139983 0
-0.0610908 0.0131217 0
-0.0631144 0.0121701 0
-0.0649788 0.01115 0
-0.0666734 0.010068 0
-0.0681899 0.00893067 0
-0.06952 0.00774502 0
-0.0706574 0.00651784 0
-0.0715956 0.00525594 0
-0.0723305 0.00396627 0
-0.0728579 0.00265577 0
-0.0731756 0.00133137 0
-0.0732815 -1.06765e-14 0
-0.0731756 -0.00133137 0
-0.0728579 -0.00265577 0
-0.0723305 -0.00396627 0
-0.0715956 -0.00525594 0
-0.0706574 -0.00651784 0
-0.06952 -0.00774502 0
-0.0681899 -0.00893067 0
-0.0666734 -0.010068 0
-0.0649788 -0.01115 0
-0.0631144 -0.0121701 0
-0.0610908 -0.0131217 0
-0.0589182 -0.0139983 0
-0.0566089 -0.0147934 0
-0.0541753 -0.0155003 0
-0.0516314 -0.0161137 0
-0.0489913 -0.0166282 0
-0.0462711 -0.0170376 0
-0.0434868 -0.0173356 0