<?xml version="1.0"?>
<VTKFile type="UnstructuredGrid">
  <UnstructuredGrid>
  <Piece NumberOfPoints="3321"  NumberOfCells="800">
    <Points>
      <DataArray type="Float64" NumberOfComponents="3" format="ascii">
0 0 0
0.0125 0 0
0.025 0 0
0.0375 0 0
0.05 0 0
0.0625 0 0
0.075 0 0
0.0875 0 0
0.1 0 0
0.1125 0 0
0.125 0 0
0.1375 0 0
0.15 0 0
0.1625 0 0
0.175 0 0
0.1875 0 0
0.2 0 0
0.2125 0 0
0.225 0 0
0.2375 0 0
0.25 0 0
0.2625 0 0
0.275 0 0
0.2875 0 0
0.3 0 0
0.3125 0 0
0.325 0 0
0.3375 0 0
0.35 0 0
0.3625 0 0
0.375 0 0
0.3875 0 0
0.4 0 0
0.4125 0 0
0.425 0 0
0.4375 0 0
0.45 0 0
0.4625 0 0
0.475 0 0
0.4875 0 0
0.5 0 0
0.5125 0 0
0.525 0 0
0.5375 0 0
0.55 0 0
0.5625 0 0
0.575 0 0
0.5875 0 0
0.6 0 0
0.6125 0 0
0.625 0 0
0.6375 0 0
0.65 0 0
0.6625 0 0
0.675 0 0
0.6875 0 0
0.7 0 0
0.7125 0 0
0.725 0 0
0.7375 0 0
0.75 0 0
0.7625 0 0
0.775 0 0
0.7875 0 0
0.8 0 0
0.8125 0 0
0.825 0 0
0.8375 0 0
0.85 0 0
0.8625 0 0
0.875 0 0
0.8875 0 0
0.9 0 0
0.9125 0 0
0.925 0 0
0.9375 0 0
0.95 0 0
0.9625 0 0
0.975 0 0
0.9875 0 0
1 0 0
0 0.0125 0
0.0125 0.0125 0
0.025 0.0125 0
0.0375 0.0125 0
0.05 0.0125 0
0.0625 0.0125 0
0.075 0.0125 0
0.0875 0.0125 0
0.1 0.0125 0
0.1125 0.0125 0
0.125 0.0125 0
0.1375 0.0125 0
0.15 0.0125 0
0.1625 0.0125 0
0.175 0.0125 0
0.1875 0.0125 0
0.2 0.0125 0
0.2125 0.0125 0
0.225 0.0125 0
0.2375 0.0125 0
0.25 0.0125 0
0.2625 0.0125 0
0.275 0.0125 0
0.2875 0.0125 0
0.3 0.0125 0
0.3125 0.0125 0
0.325 0.0125 0
0.3375 0.0125 0
0.35 0.0125 0
0.3625 0.0125 0
0.375 0.0125 0
0.3875 0.0125 0
0.4 0.0125 0
0.4125 0.0125 0
0.425 0.0125 0
0.4375 0.0125 0
0.45 0.0125 0
0.4625 0.0125 0
0.475 0.0125 0
0.4875 0.0125 0
0.5 0.0125 0
0.5125 0.0125 0
0.525 0.0125 0
0.5375 0.0125 0
0.55 0.0125 0
0.5625 0.0125 0
0.575 0.0125 0
0.5875 0.0125 0
0.6 0.0125 0
0.6125 0.0125 0
0.625 0.0125 0
0.6375 0.0125 0
0.65 0.0125 0
0.6625 0.0125 0
0.675 0.0125 0
0.6875 0.0125 0
0.7 0.0125 0
0.7125 0.0125 0
0.725 0.0125 0
0.7375 0.0125 0
0.75 0.0125 0
0.7625 0.0125 0
0.775 0.0125 0
0.7875 0.0125 0
0.8 0.0125 0
0.8125 0.0125 0
0.825 0.0125 0
0.8375 0.0125 0
0.85 0.0125 0
0.8625 0.0125 0
0.875 0.0125 0
0.8875 0.0125 0
0.9 0.0125 0
0.9125 0.0125 0
0.925 0.0125 0
0.9375 0.0125 0
0.95 0.0125 0
0.9625 0.0125 0
0.975 0.0125 0
0.9875 0.0125 0
1 0.0125 0
0 0.025 0
0.0125 0.025 0
0.025 0.025 0
0.0375 0.025 0
0.05 0.025 0
0.0625 0.025 0
0.075 0.025 0
0.0875 0.025 0
0.1 0.025 0
0.1125 0.025 0
0.125 0.025 0
0.1375 0.025 0
0.15 0.025 0
0.1625 0.025 0
0.175 0.025 0
0.1875 0.025 0
0.2 0.025 0
0.2125 0.025 0
0.225 0.025 0
0.2375 0.025 0
0.25 0.025 0
0.2625 0.025 0
0.275 0.025 0
0.2875 0.025 0
0.3 0.025 0
0.3125 0.025 0
0.325 0.025 0
0.3375 0.025 0
0.35 0.025 0
0.3625 0.025 0
0.375 0.025 0
0.3875 0.025 0
0.4 0.025 0
0.4125 0.025 0
0.425 0.025 0
0.4375 0.025 0
0.45 0.025 0
0.4625 0.025 0
0.475 0.025 0
0.4875 0.025 0
0.5 0.025 0
0.5125 0.025 0
0.525 0.025 0
0.5375 0.025 0
0.55 0.025 0
0.5625 0.025 0
0.575 0.025 0
0.5875 0.025 0
0.6 0.025 0
0.6125 0.025 0
0.625 0.025 0
0.6375 0.025 0
0.65 0.025 0
0.6625 0.025 0
0.675 0.025 0
0.6875 0.025 0
0.7 0.025 0
0.7125 0.025 0
0.725 0.025 0
0.7375 0.025 0
0.75 0.025 0
0.7625 0.025 0
0.775 0.025 0
0.7875 0.025 0
0.8 0.025 0
0.8125 0.025 0
0.825 0.025 0
0.8375 0.025 0
0.85 0.025 0
0.8625 0.025 0
0.875 0.025 0
0.8875 0.025 0
0.9 0.025 0
0.9125 0.025 0
0.925 0.025 0
0.9375 0.025 0
0.95 0.025 0
0.9625 0.025 0
0.975 0.025 0
0.9875 0.025 0
1 0.025 0
0 0.0375 0
0.0125 0.0375 0
0.025 0.0375 0
0.0375 0.0375 0
0.05 0.0375 0
0.0625 0.0375 0
0.075 0.0375 0
0.0875 0.0375 0
0.1 0.0375 0
0.1125 0.0375 0
0.125 0.0375 0
0.1375 0.0375 0
0.15 0.0375 0
0.1625 0.0375 0
0.175 0.0375 0
0.1875 0.0375 0
0.2 0.0375 0
0.2125 0.0375 0
0.225 0.0375 0
0.2375 0.0375 0
0.25 0.0375 0
0.2625 0.0375 0
0.275 0.0375 0
0.2875 0.0375 0
0.3 0.0375 0
0.3125 0.0375 0
0.325 0.0375 0
0.3375 0.0375 0
0.35 0.0375 0
0.3625 0.0375 0
0.375 0.0375 0
0.3875 0.0375 0
0.4 0.0375 0
0.4125 0.0375 0
0.425 0.0375 0
0.4375 0.0375 0
0.45 0.0375 0
0.4625 0.0375 0
0.475 0.0375 0
0.4875 0.0375 0
0.5 0.0375 0
0.5125 0.0375 0
0.525 0.0375 0
0.5375 0.0375 0
0.55 0.0375 0
0.5625 0.0375 0
0.575 0.0375 0
0.5875 0.0375 0
0.6 0.0375 0
0.6125 0.0375 0
0.625 0.0375 0
0.6375 0.0375 0
0.65 0.0375 0
0.6625 0.0375 0
0.675 0.0375 0
0.6875 0.0375 0
0.7 0.0375 0
0.7125 0.0375 0
0.725 0.0375 0
0.7375 0.0375 0
0.75 0.0375 0
0.7625 0.0375 0
0.775 0.0375 0
0.7875 0.0375 0
0.8 0.0375 0
0.8125 0.0375 0
0.825 0.0375 0
0.8375 0.0375 0
0.85 0.0375 0
0.8625 0.0375 0
0.875 0.0375 0
0.8875 0.0375 0
0.9 0.0375 0
0.9125 0.0375 0
0.925 0.0375 0
0.9375 0.0375 0
0.95 0.0375 0
0.9625 0.0375 0
0.975 0.0375 0
0.9875 0.0375 0
1 0.0375 0
0 0.05 0
0.0125 0.05 0
0.025 0.05 0
0.0375 0.05 0
0.05 0.05 0
0.0625 0.05 0
0.075 0.05 0
0.0875 0.05 0
0.1 0.05 0
0.1125 0.05 0
0.125 0.05 0
0.1375 0.05 0
0.15 0.05 0
0.1625 0.05 0
0.175 0.05 0
0.1875 0.05 0
0.2 0.05 0
0.2125 0.05 0
0.225 0.05 0
0.2375 0.05 0
0.25 0.05 0
0.2625 0.05 0
0.275 0.05 0
0.2875 0.05 0
0.3 0.05 0
0.3125 0.05 0
0.325 0.05 0
0.3375 0.05 0
0.35 0.05 0
0.3625 0.05 0
0.375 0.05 0
0.3875 0.05 0
0.4 0.05 0
0.4125 0.05 0
0.425 0.05 0
0.4375 0.05 0
0.45 0.05 0
0.4625 0.05 0
0.475 0.05 0
0.4875 0.05 0
0.5 0.05 0
0.5125 0.05 0
0.525 0.05 0
0.5375 0.05 0
0.55 0.05 0
0.5625 0.05 0
0.575 0.05 0
0.5875 0.05 0
0.6 0.05 0
0.6125 0.05 0
0.625 0.05 0
0.6375 0.05 0
0.65 0.05 0
0.6625 0.05 0
0.675 0.05 0
0.6875 0.05 0
0.7 0.05 0
0.7125 0.05 0
0.725 0.05 0
0.7375 0.05 0
0.75 0.05 0
0.7625 0.05 0
0.775 0.05 0
0.7875 0.05 0
0.8 0.05 0
0.8125 0.05 0
0.825 0.05 0
0.8375 0.05 0
0.85 0.05 0
0.8625 0.05 0
0.875 0.05 0
0.8875 0.05 0
0.9 0.05 0
0.9125 0.05 0
0.925 0.05 0
0.9375 0.05 0
0.95 0.05 0
0.9625 0.05 0
0.975 0.05 0
0.9875 0.05 0
1 0.05 0
0 0.0625 0
0.0125 0.0625 0
0.025 0.0625 0
0.0375 0.0625 0
0.05 0.0625 0
0.0625 0.0625 0
0.075 0.0625 0
0.0875 0.0625 0
0.1 0.0625 0
0.1125 0.0625 0
0.125 0.0625 0
0.1375 0.0625 0
0.15 0.0625 0
0.1625 0.0625 0
0.175 0.0625 0
0.1875 0.0625 0
0.2 0.0625 0
0.2125 0.0625 0
0.225 0.0625 0
0.2375 0.0625 0
0.25 0.0625 0
0.2625 0.0625 0
0.275 0.0625 0
0.2875 0.0625 0
0.3 0.0625 0
0.3125 0.0625 0
0.325 0.0625 0
0.3375 0.0625 0
0.35 0.0625 0
0.3625 0.0625 0
0.375 0.0625 0
0.3875 0.0625 0
0.4 0.0625 0
0.4125 0.0625 0
0.425 0.0625 0
0.4375 0.0625 0
0.45 0.0625 0
0.4625 0.0625 0
0.475 0.0625 0
0.4875 0.0625 0
0.5 0.0625 0
0.5125 0.0625 0
0.525 0.0625 0
0.5375 0.0625 0
0.55 0.0625 0
0.5625 0.0625 0
0.575 0.0625 0
0.5875 0.0625 0
0.6 0.0625 0
0.6125 0.0625 0
0.625 0.0625 0
0.6375 0.0625 0
0.65 0.0625 0
0.6625 0.0625 0
0.675 0.0625 0
0.6875 0.0625 0
0.7 0.0625 0
0.7125 0.0625 0
0.725 0.0625 0
0.7375 0.0625 0
0.75 0.0625 0
0.7625 0.0625 0
0.775 0.0625 0
0.7875 0.0625 0
0.8 0.0625 0
0.8125 0.0625 0
0.825 0.0625 0
0.8375 0.0625 0
0.85 0.0625 0
0.8625 0.0625 0
0.875 0.0625 0
0.8875 0.0625 0
0.9 0.0625 0
0.9125 0.0625 0
0.925 0.0625 0
0.9375 0.0625 0
0.95 0.0625 0
0.9625 0.0625 0
0.975 0.0625 0
0.9875 0.0625 0
1 0.0625 0
0 0.075 0
0.0125 0.075 0
0.025 0.075 0
0.0375 0.075 0
0.05 0.075 0
0.0625 0.075 0
0.075 0.075 0
0.0875 0.075 0
0.1 0.075 0
0.1125 0.075 0
0.125 0.075 0
0.1375 0.075 0
0.15 0.075 0
0.1625 0.075 0
0.175 0.075 0
0.1875 0.075 0
0.2 0.075 0
0.2125 0.075 0
0.225 0.075 0
0.2375 0.075 0
0.25 0.075 0
0.2625 0.075 0
0.275 0.075 0
0.2875 0.075 0
0.3 0.075 0
0.3125 0.075 0
0.325 0.075 0
0.3375 0.075 0
0.35 0.075 0
0.3625 0.075 0
0.375 0.075 0
0.3875 0.075 0
0.4 0.075 0
0.4125 0.075 0
0.425 0.075 0
0.4375 0.075 0
0.45 0.075 0
0.4625 0.075 0
0.475 0.075 0
0.4875 0.075 0
0.5 0.075 0
0.5125 0.075 0
0.525 0.075 0
0.5375 0.075 0
0.55 0.075 0
0.5625 0.075 0
0.575 0.075 0
0.5875 0.075 0
0.6 0.075 0
0.6125 0.075 0
0.625 0.075 0
0.6375 0.075 0
0.65 0.075 0
0.6625 0.075 0
0.675 0.075 0
0.6875 0.075 0
0.7 0.075 0
0.7125 0.075 0
0.725 0.075 0
0.7375 0.075 0
0.75 0.075 0
0.7625 0.075 0
0.775 0.075 0
0.7875 0.075 0
0.8 0.075 0
0.8125 0.075 0
0.825 0.075 0
0.8375 0.075 0
0.85 0.075 0
0.8625 0.075 0
0.875 0.075 0
0.8875 0.075 0
0.9 0.075 0
0.9125 0.075 0
0.925 0.075 0
0.9375 0.075 0
0.95 0.075 0
0.9625 0.075 0
0.975 0.075 0
0.9875 0.075 0
1 0.075 0
0 0.0875 0
0.0125 0.0875 0
0.025 0.0875 0
0.0375 0.0875 0
0.05 0.0875 0
0.0625 0.0875 0
0.075 0.0875 0
0.0875 0.0875 0
0.1 0.0875 0
0.1125 0.0875 0
0.125 0.0875 0
0.1375 0.0875 0
0.15 0.0875 0
0.1625 0.0875 0
0.175 0.0875 0
0.1875 0.0875 0
0.2 0.0875 0
0.2125 0.0875 0
0.225 0.0875 0
0.2375 0.0875 0
0.25 0.0875 0
0.2625 0.0875 0
0.275 0.0875 0
0.2875 0.0875 0
0.3 0.0875 0
0.3125 0.0875 0
0.325 0.0875 0
0.3375 0.0875 0
0.35 0.0875 0
0.3625 0.0875 0
0.375 0.0875 0
0.3875 0.0875 0
0.4 0.0875 0
0.4125 0.0875 0
0.425 0.0875 0
0.4375 0.0875 0
0.45 0.0875 0
0.4625 0.0875 0
0.475 0.0875 0
0.4875 0.0875 0
0.5 0.0875 0
0.5125 0.0875 0
0.525 0.0875 0
0.5375 0.0875 0
0.55 0.0875 0
0.5625 0.0875 0
0.575 0.0875 0
0.5875 0.0875 0
0.6 0.0875 0
0.6125 0.0875 0
0.625 0.0875 0
0.6375 0.0875 0
0.65 0.0875 0
0.6625 0.0875 0
0.675 0.0875 0
0.6875 0.0875 0
0.7 0.0875 0
0.7125 0.0875 0
0.725 0.0875 0
0.7375 0.0875 0
0.75 0.0875 0
0.7625 0.0875 0
0.775 0.0875 0
0.7875 0.0875 0
0.8 0.0875 0
0.8125 0.0875 0
0.825 0.0875 0
0.8375 0.0875 0
0.85 0.0875 0
0.8625 0.0875 0
0.875 0.0875 0
0.8875 0.0875 0
0.9 0.0875 0
0.9125 0.0875 0
0.925 0.0875 0
0.9375 0.0875 0
0.95 0.0875 0
0.9625 0.0875 0
0.975 0.0875 0
0.9875 0.0875 0
1 0.0875 0
0 0.1 0
0.0125 0.1 0
0.025 0.1 0
0.0375 0.1 0
0.05 0.1 0
0.0625 0.1 0
0.075 0.1 0
0.0875 0.1 0
0.1 0.1 0
0.1125 0.1 0
0.125 0.1 0
0.1375 0.1 0
0.15 0.1 0
0.1625 0.1 0
0.175 0.1 0
0.1875 0.1 0
0.2 0.1 0
0.2125 0.1 0
0.225 0.1 0
0.2375 0.1 0
0.25 0.1 0
0.2625 0.1 0
0.275 0.1 0
0.2875 0.1 0
0.3 0.1 0
0.3125 0.1 0
0.325 0.1 0
0.3375 0.1 0
0.35 0.1 0
0.3625 0.1 0
0.375 0.1 0
0.3875 0.1 0
0.4 0.1 0
0.4125 0.1 0
0.425 0.1 0
0.4375 0.1 0
0.45 0.1 0
0.4625 0.1 0
0.475 0.1 0
0.4875 0.1 0
0.5 0.1 0
0.5125 0.1 0
0.525 0.1 0
0.5375 0.1 0
0.55 0.1 0
0.5625 0.1 0
0.575 0.1 0
0.5875 0.1 0
0.6 0.1 0
0.6125 0.1 0
0.625 0.1 0
0.6375 0.1 0
0.65 0.1 0
0.6625 0.1 0
0.675 0.1 0
0.6875 0.1 0
0.7 0.1 0
0.7125 0.1 0
0.725 0.1 0
0.7375 0.1 0
0.75 0.1 0
0.7625 0.1 0
0.775 0.1 0
[...]
    <PointData>
      <DataArray type="Float64" NumberOfComponents="3" Name="Velocity" format="ascii">
0 0 0
0 0 0
0 0 0
0 0 0
0 0 0
0 0 0
0 0 0
0 0 0
0 0 0
0 0 0
0 0 0
0 0 0
0 0 0
0 0 0
0 0 0
0 0 0
0 0 0
0 0 0
0 0 0
0 0 0
0 0 0
0 0 0
0 0 0
0 0 0
0 0 0
0 0 0
0 0 0
0 0 0
0 0 0
0 0 0
0 0 0
0 0 0
0 0 0
0 0 0
0 0 0
0 0 0
0 0 0
0 0 0
0 0 0
0 0 0
0 0 0
0 0 0
0 0 0
0 0 0
0 0 0
0 0 0
0 0 0
0 0 0
0 0 0
0 0 0
0 0 0
0 0 0
0 0 0
0 0 0
0 0 0
0 0 0
0 0 0
0 0 0
0 0 0
0 0 0
0 0 0
0 0 0
0 0 0
0 0 0
0 0 0
0 0 0
0 0 0
0 0 0
0 0 0
0 0 0
0 0 0
0 0 0
0 0 0
0 0 0
0 0 0
0 0 0
0 0 0
0 0 0
0 0 0
0 0 0
0 0 0
0 0 0
-1.01416e-09 2.13572e-09 0
-3.8388e-09 1.23309e-09 0
-5.85426e-09 -9.48212e-10 0
-4.44087e-09 -2.6485e-09 0
-1.54752e-09 -2.92247e-09 0
8.76879e-10 -8.24809e-10 0
1.94534e-09 1.48007e-09 0
7.70855e-10 1.82776e-09 0
-8.66623e-10 1.03621e-09 0
-1.18715e-09 -7.66204e-11 0
-7.5792e-10 -8.28417e-10 0
-1.46154e-10 -5.36863e-10 0
3.07813e-10 4.61076e-11 0
2.63644e-10 1.68557e-10 0
5.94939e-11 7.57391e-11 0
3.35166e-11 1.29049e-11 0
5.62426e-11 -1.19531e-12 0
-1.79777e-12 5.21883e-11 0
-9.20465e-11 9.55813e-11 0
-1.65945e-10 5.15093e-11 0
-2.162e-10 -6.52563e-12 0
-2.35516e-10 -5.02142e-12 0
-2.45153e-10 1.30299e-11 0
-2.66372e-10 4.63641e-12 0
-2.83862e-10 -1.2053e-11 0
-2.82308e-10 -1.88894e-11 0
-2.73063e-10 -2.00967e-11 0
-2.67479e-10 -1.98988e-11 0
-2.61541e-10 -2.02622e-11 0
-2.51234e-10 -2.31532e-11 0
-2.39013e-10 -2.52012e-11 0
-2.27334e-10 -2.30355e-11 0
-2.16418e-10 -1.97848e-11 0
-2.06489e-10 -1.85778e-11 0
-1.97542e-10 -1.73676e-11 0
-1.89575e-10 -1.41073e-11 0
-1.83105e-10 -1.01921e-11 0
-1.78649e-10 -7.0175e-12 0
-1.76061e-10 -3.86099e-12 0
-1.75199e-10 9.62787e-22 0
-1.76061e-10 3.86099e-12 0
-1.78649e-10 7.0175e-12 0
-1.83105e-10 1.01921e-11 0
-1.89575e-10 1.41073e-11 0
-1.97542e-10 1.73676e-11 0
-2.06489e-10 1.85778e-11 0
-2.16418e-10 1.97848e-11 0
-2.27334e-10 2.30355e-11 0
-2.39013e-10 2.52012e-11 0
-2.51234e-10 2.31532e-11 0
-2.61541e-10 2.02622e-11 0
-2.67479e-10 1.98988e-11 0
-2.73063e-10 2.00967e-11 0
-2.82308e-10 1.88894e-11 0
-2.83862e-10 1.2053e-11 0
-2.66372e-10 -4.63641e-12 0
-2.45153e-10 -1.30299e-11 0
-2.35516e-10 5.02142e-12 0
-2.162e-10 6.52563e-12 0
-1.65945e-10 -5.15093e-11 0
-9.20465e-11 -9.55813e-11 0
-1.79777e-12 -5.21883e-11 0
5.62426e-11 1.19531e-12 0
3.35166e-11 -1.29049e-11 0
5.94939e-11 -7.57391e-11 0
2.63644e-10 -1.68557e-10 0
3.07813e-10 -4.61076e-11 0
-1.46154e-10 5.36863e-10 0
-7.5792e-10 8.28417e-10 0
-1.18715e-09 7.66204e-11 0
-8.66623e-10 -1.03621e-09 0
7.70855e-10 -1.82776e-09 0
1.94534e-09 -1.48007e-09 0
8.76879e-10 8.24809e-10 0
-1.54752e-09 2.92247e-09 0
-4.44087e-09 2.6485e-09 0
-5.85426e-09 9.48212e-10 0
-3.8388e-09 -1.23309e-09 0
-1.01416e-09 -2.13572e-09 0
0 0 0
0 0 0
3.14172e-10 4.10062e-09 0
-8.1955e-10 3.57855e-09 0
-2.76049e-09 4.06119e-10 0
-4.86797e-09 -3.44435e-09 0
-5.91914e-09 -5.47536e-09 0
-4.69114e-09 -3.18939e-09 0
-2.46215e-09 2.95903e-10 0
-5.10336e-10 1.86288e-09 0
6.73053e-10 1.80759e-09 0
5.96765e-10 4.26103e-10 0
8.22177e-11 -9.06105e-10 0
-4.91709e-11 -8.1354e-10 0
2.86437e-11 -1.85434e-10 0
1.41706e-10 8.8982e-11 0
1.90111e-10 1.37591e-10 0
7.39551e-11 8.82747e-11 0
-7.98104e-11 4.56559e-11 0
-1.44234e-10 1.14358e-10 0
-1.8351e-10 1.80947e-10 0
-2.61834e-10 1.31992e-10 0
-3.47275e-10 5.49218e-11 0
-4.07903e-10 3.71658e-11 0
-4.47759e-10 3.96676e-11 0
-4.70884e-10 2.33706e-11 0
-4.85038e-10 7.47223e-13 0
-4.97982e-10 -1.57303e-11 0
-5.03866e-10 -2.59204e-11 0
-4.96837e-10 -2.96817e-11 0
-4.8422e-10 -3.1658e-11 0
-4.73338e-10 -3.64936e-11 0
-4.6174e-10 -4.0016e-11 0
-4.46974e-10 -3.80533e-11 0
-4.31633e-10 -3.40499e-11 0
-4.18308e-10 -3.14504e-11 0
-4.0668e-10 -2.85057e-11 0
-3.96428e-10 -2.34665e-11 0
-3.88036e-10 -1.75333e-11 0
-3.81988e-10 -1.19065e-11 0
-3.78331e-10 -6.19309e-12 0
-3.77112e-10 1.7887e-21 0
-3.78331e-10 6.19309e-12 0
-3.81988e-10 1.19065e-11 0
-3.88036e-10 1.75333e-11 0
-3.96428e-10 2.34665e-11 0
-4.0668e-10 2.85057e-11 0
-4.18308e-10 3.14504e-11 0
-4.31633e-10 3.40499e-11 0
-4.46974e-10 3.80533e-11 0
-4.6174e-10 4.0016e-11 0
-4.73338e-10 3.64936e-11 0
-4.8422e-10 3.1658e-11 0
-4.96837e-10 2.96817e-11 0
-5.03866e-10 2.59204e-11 0
-4.97982e-10 1.57303e-11 0
-4.85038e-10 -7.47223e-13 0
-4.70884e-10 -2.33706e-11 0
-4.47759e-10 -3.96676e-11 0
-4.07903e-10 -3.71658e-11 0
-3.47275e-10 -5.49218e-11 0
-2.61834e-10 -1.31992e-10 0
-1.8351e-10 -1.80947e-10 0
-1.44234e-10 -1.14358e-10 0
-7.98104e-11 -4.56559e-11 0
7.39551e-11 -8.82747e-11 0
1.90111e-10 -1.37591e-10 0
1.41706e-10 -8.8982e-11 0
2.86437e-11 1.85434e-10 0
-4.91709e-11 8.1354e-10 0
8.22177e-11 9.06105e-10 0
5.96765e-10 -4.26103e-10 0
6.73053e-10 -1.80759e-09 0
-5.10336e-10 -1.86288e-09 0
-2.46215e-09 -2.95903e-10 0
-4.69114e-09 3.18939e-09 0
-5.91914e-09 5.47536e-09 0
-4.86797e-09 3.44435e-09 0
-2.76049e-09 -4.06119e-10 0
-8.1955e-10 -3.57855e-09 0
3.14172e-10 -4.10062e-09 0
0 0 0
0 0 0
1.97441e-09 4.09632e-09 0
3.99381e-09 5.05354e-09 0
3.41119e-09 3.22596e-09 0
-2.4205e-09 -1.03216e-09 0
-8.63135e-09 -4.68303e-09 0
-1.03514e-08 -4.68886e-09 0
-8.30054e-09 -2.75793e-09 0
-3.19841e-09 -5.9855e-10 0
1.49065e-09 8.15533e-10 0
2.30235e-09 5.10561e-10 0
1.23634e-09 -3.29407e-10 0
2.92306e-10 -5.20315e-10 0
-2.33824e-10 -3.34616e-10 0
-4.61167e-11 -4.47659e-11 0
2.52948e-10 1.9086e-10 0
6.08916e-11 2.13884e-10 0
-2.5336e-10 1.67125e-10 0
-3.20881e-10 1.93401e-10 0
-3.01789e-10 2.27226e-10 0
-3.562e-10 2.03116e-10 0
-4.47402e-10 1.53253e-10 0
-5.38682e-10 1.0982e-10 0
-6.06847e-10 7.45223e-11 0
-6.28702e-10 4.90639e-11 0
-6.37287e-10 2.70534e-11 0
-6.65639e-10 2.09879e-12 0
-6.90238e-10 -1.94451e-11 0
-6.87566e-10 -3.12238e-11 0
-6.74721e-10 -3.77909e-11 0
-6.68804e-10 -4.37001e-11 0
-6.63323e-10 -4.74557e-11 0
-6.51784e-10 -4.75619e-11 0
-6.38181e-10 -4.50866e-11 0
-6.26508e-10 -4.10978e-11 0
-6.16486e-10 -3.59485e-11 0
-6.07838e-10 -2.99914e-11 0
-6.00722e-10 -2.32218e-11 0
-5.95294e-10 -1.56348e-11 0
-5.91857e-10 -7.72827e-12 0
-5.90711e-10 2.24346e-21 0
-5.91857e-10 7.72827e-12 0
-5.95294e-10 1.56348e-11 0
-6.00722e-10 2.32218e-11 0
-6.07838e-10 2.99914e-11 0
-6.16486e-10 3.59485e-11 0
-6.26508e-10 4.10978e-11 0
-6.38181e-10 4.50866e-11 0
-6.51784e-10 4.75619e-11 0
-6.63323e-10 4.74557e-11 0
-6.68804e-10 4.37001e-11 0
-6.74721e-10 3.77909e-11 0
-6.87566e-10 3.12238e-11 0
-6.90238e-10 1.94451e-11 0
-6.65639e-10 -2.09879e-12 0
-6.37287e-10 -2.70534e-11 0
-6.28702e-10 -4.90639e-11 0
-6.06847e-10 -7.45223e-11 0
-5.38682e-10 -1.0982e-10 0
-4.47402e-10 -1.53253e-10 0
-3.562e-10 -2.03116e-10 0
-3.01789e-10 -2.27226e-10 0
-3.20881e-10 -1.93401e-10 0
-2.5336e-10 -1.67125e-10 0
6.08916e-11 -2.13884e-10 0
2.52948e-10 -1.9086e-10 0
-4.61167e-11 4.47659e-11 0
-2.33824e-10 3.34616e-10 0
2.92306e-10 5.20315e-10 0
1.23634e-09 3.29407e-10 0
2.30235e-09 -5.10561e-10 0
1.49065e-09 -8.15533e-10 0
-3.19841e-09 5.9855e-10 0
-8.30054e-09 2.75793e-09 0
-1.03514e-08 4.68886e-09 0
-8.63135e-09 4.68303e-09 0
-2.4205e-09 1.03216e-09 0
3.41119e-09 -3.22596e-09 0
3.99381e-09 -5.05354e-09 0
1.97441e-09 -4.09632e-09 0
0 0 0
0 0 0
1.95596e-09 3.24418e-10 0
5.53735e-09 3.67521e-09 0
6.79065e-09 6.67426e-09 0
1.76235e-09 5.94347e-09 0
-5.20063e-09 2.43017e-09 0
-9.75137e-09 -2.9183e-09 0
-1.06479e-08 -6.88687e-09 0
-6.6482e-09 -6.26044e-09 0
-1.54219e-09 -3.43859e-09 0
8.80215e-10 -8.20854e-10 0
1.42038e-09 8.05328e-10 0
8.79632e-10 6.5253e-10 0
1.24096e-10 -4.14278e-11 0
1.98759e-11 -3.87257e-11 0
1.09102e-10 2.40849e-10 0
-6.60974e-11 3.77508e-10 0
-3.09607e-10 3.89785e-10 0
-4.25314e-10 2.96211e-10 0
-4.74282e-10 2.05546e-10 0
-5.17578e-10 2.26547e-10 0
-5.70756e-10 2.57377e-10 0
-6.49371e-10 1.962e-10 0
-7.21443e-10 1.12203e-10 0
-7.54996e-10 7.45778e-11 0
-7.74366e-10 5.5518e-11 0
-8.03894e-10 2.72193e-11 0
-8.30013e-10 -2.64463e-12 0
-8.39159e-10 -2.64002e-11 0
-8.39731e-10 -4.22638e-11 0
-8.40128e-10 -4.84519e-11 0
-8.38906e-10 -5.05315e-11 0
-8.34623e-10 -5.40697e-11 0
-8.28594e-10 -5.5186e-11 0
-8.22134e-10 -4.99999e-11 0
-8.16036e-10 -4.22302e-11 0
-8.11089e-10 -3.55955e-11 0
-8.07092e-10 -2.84556e-11 0
-8.03844e-10 -1.91701e-11 0
-8.01688e-10 -9.19846e-12 0
-8.0097e-10 2.0928e-21 0
-8.01688e-10 9.19846e-12 0
-8.03844e-10 1.91701e-11 0
-8.07092e-10 2.84556e-11 0
-8.11089e-10 3.55955e-11 0
-8.16036e-10 4.22302e-11 0
-8.22134e-10 4.99999e-11 0
-8.28594e-10 5.5186e-11 0
-8.34623e-10 5.40697e-11 0
-8.38906e-10 5.05315e-11 0
-8.40128e-10 4.84519e-11 0
-8.39731e-10 4.22638e-11 0
-8.39159e-10 2.64002e-11 0
-8.30013e-10 2.64463e-12 0
-8.03894e-10 -2.72193e-11 0
-7.74366e-10 -5.5518e-11 0
-7.54996e-10 -7.45778e-11 0
-7.21443e-10 -1.12203e-10 0
-6.49371e-10 -1.962e-10 0
-5.70756e-10 -2.57377e-10 0
-5.17578e-10 -2.26547e-10 0
-4.74282e-10 -2.05546e-10 0
-4.25314e-10 -2.96211e-10 0
-3.09607e-10 -3.89785e-10 0
-6.60974e-11 -3.77508e-10 0
1.09102e-10 -2.40849e-10 0
1.98759e-11 3.87257e-11 0
1.24096e-10 4.14278e-11 0
8.79632e-10 -6.5253e-10 0
1.42038e-09 -8.05328e-10 0
8.80215e-10 8.20854e-10 0
-1.54219e-09 3.43859e-09 0
-6.6482e-09 6.26044e-09 0
-1.06479e-08 6.88687e-09 0
-9.75137e-09 2.9183e-09 0
-5.20063e-09 -2.43017e-09 0
1.76235e-09 -5.94347e-09 0
6.79065e-09 -6.67426e-09 0
5.53735e-09 -3.67521e-09 0
1.95596e-09 -3.24418e-10 0
0 0 0
0 0 0
7.83792e-10 -3.51941e-09 0
3.93554e-09 1.19584e-09 0
6.3912e-09 8.25569e-09 0
5.08675e-09 1.17701e-08 0
1.13881e-09 9.91478e-09 0
-4.33598e-09 8.65501e-10 0
-8.44453e-09 -8.24964e-09 0
-8.29376e-09 -1.03025e-08 0
-5.70981e-09 -7.78297e-09 0
-2.51883e-09 -3.18073e-09 0
2.42576e-11 7.36587e-10 0
6.64526e-10 1.20142e-09 0
3.58991e-10 3.03305e-10 0
6.46665e-11 1.31793e-10 0
-1.56737e-10 3.26722e-10 0
-2.43509e-10 5.2793e-10 0
-3.08922e-10 6.05007e-10 0
-4.66248e-10 4.2754e-10 0
-6.2113e-10 2.33728e-10 0
-6.79206e-10 2.61765e-10 0
-7.02479e-10 3.32388e-10 0
-7.52946e-10 2.66334e-10 0
-8.11983e-10 1.59931e-10 0
-8.60963e-10 1.09507e-10 0
-8.98517e-10 8.41338e-11 0
-9.23271e-10 5.28825e-11 0
-9.42684e-10 1.91078e-11 0
-9.64211e-10 -1.38355e-11 0
-9.8181e-10 -3.83138e-11 0
-9.89437e-10 -4.66933e-11 0
-9.92666e-10 -4.89671e-11 0
-9.97073e-10 -5.51285e-11 0
-1.00067e-09 -5.88584e-11 0
-1.00146e-09 -5.38382e-11 0
-1.00105e-09 -4.52544e-11 0
-1.00102e-09 -3.8294e-11 0
-1.00108e-09 -3.08752e-11 0
-1.00093e-09 -2.09163e-11 0
-1.00073e-09 -1.00727e-11 0
-1.00066e-09 2.14033e-21 0
-1.00073e-09 1.00727e-11 0
-1.00093e-09 2.09163e-11 0
-1.00108e-09 3.08752e-11 0
-1.00102e-09 3.8294e-11 0
-1.00105e-09 4.52544e-11 0
-1.00146e-09 5.38382e-11 0
-1.00067e-09 5.88584e-11 0
-9.97073e-10 5.51285e-11 0
-9.92666e-10 4.89671e-11 0
-9.89437e-10 4.66933e-11 0
-9.8181e-10 3.83138e-11 0
-9.64211e-10 1.38355e-11 0
-9.42684e-10 -1.91078e-11 0
-9.23271e-10 -5.28825e-11 0
-8.98517e-10 -8.41338e-11 0
-8.60963e-10 -1.09507e-10 0
-8.11983e-10 -1.59931e-10 0
-7.52946e-10 -2.66334e-10 0
-7.02479e-10 -3.32388e-10 0
-6.79206e-10 -2.61765e-10 0
-6.2113e-10 -2.33728e-10 0
-4.66248e-10 -4.2754e-10 0
-3.08922e-10 -6.05007e-10 0
-2.43509e-10 -5.2793e-10 0
-1.56737e-10 -3.26722e-10 0
6.46665e-11 -1.31793e-10 0
3.58991e-10 -3.03305e-10 0
6.64526e-10 -1.20142e-09 0
2.42576e-11 -7.36587e-10 0
-2.51883e-09 3.18073e-09 0
-5.70981e-09 7.78297e-09 0
-8.29376e-09 1.03025e-08 0
-8.44453e-09 8.24964e-09 0
-4.33598e-09 -8.65501e-10 0
1.13881e-09 -9.91478e-09 0
5.08675e-09 -1.17701e-08 0
6.3912e-09 -8.25569e-09 0
3.93554e-09 -1.19584e-09 0
7.83792e-10 3.51941e-09 0
0 0 0
0 0 0
-1.01714e-09 -3.73949e-09 0
-6.87142e-10 -6.32281e-10 0
1.22614e-09 5.47488e-09 0
4.95886e-09 1.07352e-08 0
7.15279e-09 1.18214e-08 0
4.44972e-09 5.40579e-09 0
-6.30786e-10 -3.00499e-09 0
-5.56915e-09 -7.90455e-09 0
-8.2965e-09 -9.0458e-09 0
-6.74398e-09 -6.18166e-09 0
-3.56208e-09 -2.29714e-09 0
-1.40129e-09 -3.7723e-10 0
-2.72546e-10 3.08755e-10 0
-1.86762e-10 4.91481e-10 0
-4.5988e-10 4.87643e-10 0
-4.0784e-10 6.13933e-10 0
-3.11672e-10 7.04162e-10 0
-4.52404e-10 5.9214e-10 0
-6.62475e-10 4.29594e-10 0
-7.74327e-10 3.68248e-10 0
-8.27711e-10 3.43377e-10 0
-8.62385e-10 2.90253e-10 0
-8.98898e-10 2.24926e-10 0
-9.57805e-10 1.63447e-10 0
-1.01198e-09 1.10893e-10 0
-1.0343e-09 7.23392e-11 0
-1.04774e-09 4.04389e-11 0
-1.07531e-09 7.84539e-12 0
-1.10352e-09 -1.91781e-11 0
-1.11886e-09 -3.43687e-11 0
-1.12878e-09 -4.24859e-11 0
-1.14072e-09 -4.82895e-11 0
-1.1522e-09 -5.06139e-11 0
-1.16076e-09 -4.82938e-11 0
-1.16724e-09 -4.29248e-11 0
-1.17248e-09 -3.61022e-11 0
-1.17663e-09 -2.81213e-11 0
-1.17983e-09 -1.92773e-11 0
-1.18187e-09 -9.82017e-12 0
-1.18255e-09 3.18964e-21 0
-1.18187e-09 9.82017e-12 0
-1.17983e-09 1.92773e-11 0
-1.17663e-09 2.81213e-11 0
-1.17248e-09 3.61022e-11 0
-1.16724e-09 4.29248e-11 0
-1.16076e-09 4.82938e-11 0
-1.1522e-09 5.06139e-11 0
-1.14072e-09 4.82895e-11 0
-1.12878e-09 4.24859e-11 0
-1.11886e-09 3.43687e-11 0
-1.10352e-09 1.91781e-11 0
-1.07531e-09 -7.84539e-12 0
-1.04774e-09 -4.04389e-11 0
-1.0343e-09 -7.23392e-11 0
-1.01198e-09 -1.10893e-10 0
-9.57805e-10 -1.63447e-10 0
-8.98898e-10 -2.24926e-10 0
-8.62385e-10 -2.90253e-10 0
-8.27711e-10 -3.43377e-10 0
-7.74327e-10 -3.68248e-10 0
-6.62475e-10 -4.29594e-10 0
-4.52404e-10 -5.9214e-10 0
-3.11672e-10 -7.04162e-10 0
-4.0784e-10 -6.13933e-10 0
-4.5988e-10 -4.87643e-10 0
-1.86762e-10 -4.91481e-10 0
-2.72546e-10 -3.08755e-10 0
-1.40129e-09 3.7723e-10 0
-3.56208e-09 2.29714e-09 0
-6.74398e-09 6.18166e-09 0
-8.2965e-09 9.0458e-09 0
-5.56915e-09 7.90455e-09 0
-6.30786e-10 3.00499e-09 0
4.44972e-09 -5.40579e-09 0
7.15279e-09 -1.18214e-08 0
4.95886e-09 -1.07352e-08 0
1.22614e-09 -5.47488e-09 0
-6.87142e-10 6.32281e-10 0
-1.01714e-09 3.73949e-09 0
0 0 0
0 0 0
-2.16833e-09 -1.8317e-09 0
-4.47914e-09 -1.41704e-09 0
-3.80998e-09 1.17328e-09 0
2.96161e-09 5.86852e-09 0
9.89489e-09 9.37713e-09 0
1.10491e-08 8.40752e-09 0
7.27901e-09 4.2057e-09 0
-5.60559e-10 -1.9823e-09 0
-7.56265e-09 -6.9848e-09 0
-8.82029e-09 -7.63012e-09 0
-6.83936e-09 -5.67161e-09 0
-4.12573e-09 -2.86264e-09 0
-1.82468e-09 -4.33686e-10 0
-1.08147e-09 3.84754e-10 0
-1.01671e-09 4.32514e-10 0
-7.50991e-10 5.49427e-10 0
-5.17517e-10 6.62393e-10 0
-5.49494e-10 6.98316e-10 0
-7.03261e-10 6.48317e-10 0
-8.35158e-10 5.03516e-10 0
-9.27476e-10 3.5973e-10 0
-9.62506e-10 3.12773e-10 0
-9.8667e-10 2.90701e-10 0
-1.04639e-09 2.21569e-10 0
-1.10679e-09 1.43648e-10 0
-1.13297e-09 9.52103e-11 0
-1.14882e-09 6.29127e-11 0
-1.17823e-09 3.34107e-11 0
-1.20987e-09 7.3453e-12 0
-1.2324e-09 -1.46421e-11 0
-1.25045e-09 -2.96566e-11 0
-1.26868e-09 -3.48032e-11 0
-1.28603e-09 -3.52391e-11 0
-1.30147e-09 -3.61218e-11 0
-1.31457e-09 -3.49617e-11 0
-1.3249e-09 -2.92696e-11 0
-1.33296e-09 -2.17467e-11 0
-1.33927e-09 -1.50943e-11 0
-1.34333e-09 -8.21219e-12 0
-1.34469e-09 5.66059e-21 0
-1.34333e-09 8.21219e-12 0
-1.33927e-09 1.50943e-11 0
-1.33296e-09 2.17467e-11 0
-1.3249e-09 2.92696e-11 0
-1.31457e-09 3.49617e-11 0
-1.30147e-09 3.61218e-11 0
-1.28603e-09 3.52391e-11 0
-1.26868e-09 3.48032e-11 0
-1.25045e-09 2.96566e-11 0
-1.2324e-09 1.46421e-11 0
-1.20987e-09 -7.3453e-12 0
-1.17823e-09 -3.34107e-11 0
-1.14882e-09 -6.29127e-11 0
-1.13297e-09 -9.52103e-11 0
-1.10679e-09 -1.43648e-10 0
-1.04639e-09 -2.21569e-10 0
-9.8667e-10 -2.90701e-10 0
-9.62506e-10 -3.12773e-10 0
-9.27476e-10 -3.5973e-10 0
-8.35158e-10 -5.03516e-10 0
-7.03261e-10 -6.48317e-10 0
-5.49494e-10 -6.98316e-10 0
-5.17517e-10 -6.62393e-10 0
-7.50991e-10 -5.49427e-10 0
-1.01671e-09 -4.32514e-10 0
-1.08147e-09 -3.84754e-10 0
-1.82468e-09 4.33686e-10 0
-4.12573e-09 2.86264e-09 0
-6.83936e-09 5.67161e-09 0
-8.82029e-09 7.63012e-09 0
-7.56265e-09 6.9848e-09 0
-5.60559e-10 1.9823e-09 0
7.27901e-09 -4.2057e-09 0
1.10491e-08 -8.40752e-09 0
9.89489e-09 -9.37713e-09 0
2.96161e-09 -5.86852e-09 0
-3.80998e-09 -1.17328e-09 0
-4.47914e-09 1.41704e-09 0
-2.16833e-09 1.8317e-09 0
0 0 0
0 0 0
-1.39127e-09 7.08112e-10 0
-3.58892e-09 -7.66322e-10 0
-3.82263e-09 -1.80771e-09 0
6.7793e-10 1.99549e-10 0
6.41867e-09 3.80936e-09 0
9.90552e-09 7.57563e-09 0
9.77055e-09 8.74107e-09 0
4.64581e-09 4.54841e-09 0
-1.76866e-09 -1.35769e-09 0
-5.77283e-09 -5.33256e-09 0
-7.3083e-09 -6.76254e-09 0
-6.31669e-09 -5.03402e-09 0
-4.35157e-09 -2.33262e-09 0
-2.96653e-09 -8.43974e-10 0
-2.04361e-09 -1.29762e-10 0
-1.46486e-09 2.4832e-10 0
-1.12612e-09 4.54843e-10 0
-9.23233e-10 6.54376e-10 0
-8.48427e-10 7.45073e-10 0
-8.93922e-10 6.25086e-10 0
-9.82796e-10 4.50828e-10 0
-1.03813e-09 3.78712e-10 0
-1.07978e-09 3.40772e-10 0
-1.1276e-09 2.69042e-10 0
-1.17499e-09 1.90248e-10 0
-1.21531e-09 1.31116e-10 0
-1.24955e-09 8.80936e-11 0
-1.27873e-09 5.76283e-11 0
-1.30588e-09 3.34585e-11 0
-1.33404e-09 9.32246e-12 0
-1.36089e-09 -9.04778e-12 0
-1.38408e-09 -1.59201e-11 0
-1.40501e-09 -1.75209e-11 0
-1.42504e-09 -2.00768e-11 0
-1.443e-09 -2.10857e-11 0
-1.45771e-09 -1.80457e-11 0
-1.46933e-09 -1.33042e-11 0
-1.47797e-09 -9.20864e-12 0
-1.48335e-09 -5.0202e-12 0
-1.48514e-09 9.97304e-21 0
-1.48335e-09 5.0202e-12 0
-1.47797e-09 9.20864e-12 0
-1.46933e-09 1.33042e-11 0
-1.45771e-09 1.80457e-11 0
-1.443e-09 2.10857e-11 0
-1.42504e-09 2.00768e-11 0
-1.40501e-09 1.75209e-11 0
-1.38408e-09 1.59201e-11 0
-1.36089e-09 9.04778e-12 0
-1.33404e-09 -9.32246e-12 0
-1.30588e-09 -3.34585e-11 0
-1.27873e-09 -5.76283e-11 0
-1.24955e-09 -8.80936e-11 0
-1.21531e-09 -1.31116e-10 0
-1.17499e-09 -1.90248e-10 0
-1.1276e-09 -2.69042e-10 0
-1.07978e-09 -3.40772e-10 0
-1.03813e-09 -3.78712e-10 0
-9.82796e-10 -4.50828e-10 0
-8.93922e-10 -6.25086e-10 0
-8.48427e-10 -7.45073e-10 0
-9.23233e-10 -6.54376e-10 0
-1.12612e-09 -4.54843e-10 0
-1.46486e-09 -2.4832e-10 0
-2.04361e-09 1.29762e-10 0
-2.96653e-09 8.43974e-10 0
-4.35157e-09 2.33262e-09 0
-6.31669e-09 5.03402e-09 0
-7.3083e-09 6.76254e-09 0
-5.77283e-09 5.33256e-09 0
-1.76866e-09 1.35769e-09 0
4.64581e-09 -4.54841e-09 0
9.77055e-09 -8.74107e-09 0
9.90552e-09 -7.57563e-09 0
6.41867e-09 -3.80936e-09 0
6.7793e-10 -1.99549e-10 0
-3.82263e-09 1.80771e-09 0
-3.58892e-09 7.66322e-10 0
-1.39127e-09 -7.08112e-10 0
0 0 0
0 0 0
-4.92455e-12 2.38504e-09 0
-8.34134e-10 2.29026e-10 0
-1.48091e-09 -2.97349e-09 0
-9.38545e-10 -3.72794e-09 0
1.16761e-09 -1.38458e-09 0
5.21221e-09 4.70634e-09 0
8.39882e-09 9.74318e-09 0
7.93101e-09 8.92427e-09 0
4.64113e-09 4.55985e-09 0
-6.38456e-10 -1.03985e-09 0
-5.31385e-09 -5.30317e-09 0
-6.79113e-09 -5.65844e-09 0
-6.23546e-09 -4.04396e-09 0
-4.81198e-09 -2.39803e-09 0
-3.30007e-09 -1.05252e-09 0
-2.47905e-09 -3.39304e-10 0
-2.00878e-09 4.56617e-11 0
-1.54908e-09 4.06414e-10 0
-1.20749e-09 6.37849e-10 0
-1.09157e-09 6.34863e-10 0
-1.10348e-09 5.2709e-10 0
-1.14536e-09 4.44163e-10 0
-1.19194e-09 3.74436e-10 0
-1.21792e-09 3.06259e-10 0
-1.24469e-09 2.39607e-10 0
-1.29363e-09 1.74452e-10 0
-1.34346e-09 1.19878e-10 0
-1.37289e-09 8.49672e-11 0
-1.39625e-09 6.03102e-11 0
-1.42785e-09 3.6498e-11 0
-1.46063e-09 1.7579e-11 0
-1.48752e-09 7.60146e-12 0
-1.51108e-09 2.69056e-12 0
-1.5339e-09 -1.02847e-12 0
-1.5548e-09 -3.23989e-12 0
-1.5726e-09 -3.62797e-12 0
-1.58684e-09 -2.95099e-12 0
-1.59705e-09 -1.96723e-12 0
-1.6032e-09 -9.06844e-13 0
-1.60525e-09 1.54113e-20 0
-1.6032e-09 9.06844e-13 0
-1.59705e-09 1.96723e-12 0
-1.58684e-09 2.95099e-12 0
-1.5726e-09 3.62797e-12 0
-1.5548e-09 3.23989e-12 0
-1.5339e-09 1.02847e-12 0
-1.51108e-09 -2.69056e-12 0
-1.48752e-09 -7.60146e-12 0
-1.46063e-09 -1.7579e-11 0
-1.42785e-09 -3.6498e-11 0
-1.39625e-09 -6.03102e-11 0
-1.37289e-09 -8.49672e-11 0
-1.34346e-09 -1.19878e-10 0
-1.29363e-09 -1.74452e-10 0
-1.24469e-09 -2.39607e-10 0
-1.21792e-09 -3.06259e-10 0
-1.19194e-09 -3.74436e-10 0
-1.14536e-09 -4.44163e-10 0
-1.10348e-09 -5.2709e-10 0
-1.09157e-09 -6.34863e-10 0
-1.20749e-09 -6.37849e-10 0
-1.54908e-09 -4.06414e-10 0
-2.00878e-09 -4.56617e-11 0
-2.47905e-09 3.39304e-10 0
-3.30007e-09 1.05252e-09 0
-4.81198e-09 2.39803e-09 0
-6.23546e-09 4.04396e-09 0
-6.79113e-09 5.65844e-09 0
-5.31385e-09 5.30317e-09 0
-6.38456e-10 1.03985e-09 0
4.64113e-09 -4.55985e-09 0
7.93101e-09 -8.92427e-09 0
8.39882e-09 -9.74318e-09 0
5.21221e-09 -4.70634e-09 0
1.16761e-09 1.38458e-09 0
-9.38545e-10 3.72794e-09 0
-1.48091e-09 2.97349e-09 0
-8.34134e-10 -2.29026e-10 0
-4.92455e-12 -2.38504e-09 0
0 0 0
0 0 0