<?xml version="1.0"?>
<VTKFile type="UnstructuredGrid">
  <UnstructuredGrid>
  <Piece NumberOfPoints="3321"  NumberOfCells="1600">
    <Points>
      <DataArray type="Float64" NumberOfComponents="3" format="ascii">
0 0 0.1
1 0 0.1
1 0.5 0.1
0 0.5 0.1
0.025 0 0.1
0.05 0 0.1
0.075 0 0.1
0.1 0 0.1
0.125 0 0.1
0.15 0 0.1
0.175 0 0.1
0.2 0 0.1
0.225 0 0.1
0.25 0 0.1
0.275 0 0.1
0.3 0 0.1
0.325 0 0.1
0.35 0 0.1
0.375 0 0.1
0.4 0 0.1
0.425 0 0.1
0.45 0 0.1
0.475 0 0.1
0.5 0 0.1
0.525 0 0.1
0.55 0 0.1
0.575 0 0.1
0.6 0 0.1
0.625 0 0.1
0.65 0 0.1
0.675 0 0.1
0.7 0 0.1
0.725 0 0.1
0.75 0 0.1
0.775 0 0.1
0.8 0 0.1
0.825 0 0.1
0.85 0 0.1
0.875 0 0.1
0.9 0 0.1
0.925 0 0.1
0.95 0 0.1
0.975 0 0.1
0.0125 0 0.1
0.0375 0 0.1
0.0625 0 0.1
0.0875 0 0.1
0.1125 0 0.1
0.1375 0 0.1
0.1625 0 0.1
0.1875 0 0.1
0.2125 0 0.1
0.2375 0 0.1
0.2625 0 0.1
0.2875 0 0.1
0.3125 0 0.1
0.3375 0 0.1
0.3625 0 0.1
0.3875 0 0.1
0.4125 0 0.1
0.4375 0 0.1
0.4625 0 0.1
0.4875 0 0.1
0.5125 0 0.1
0.5375 0 0.1
0.5625 0 0.1
0.5875 0 0.1
0.6125 0 0.1
0.6375 0 0.1
0.6625 0 0.1
0.6875 0 0.1
0.7125 0 0.1
0.7375 0 0.1
0.7625 0 0.1
0.7875 0 0.1
0.8125 0 0.1
0.8375 0 0.1
0.8625 0 0.1
0.8875 0 0.1
0.9125 0 0.1
0.9375 0 0.1
0.9625 0 0.1
0.9875 0 0.1
1 0.025 0.1
1 0.05 0.1
1 0.075 0.1
1 0.1 0.1
1 0.125 0.1
1 0.15 0.1
1 0.175 0.1
1 0.2 0.1
1 0.225 0.1
1 0.25 0.1
1 0.275 0.1
1 0.3 0.1
1 0.325 0.1
1 0.35 0.1
1 0.375 0.1
1 0.4 0.1
1 0.425 0.1
1 0.45 0.1
1 0.475 0.1
1 0.0125 0.1
1 0.0375 0.1
1 0.0625 0.1
1 0.0875 0.1
1 0.1125 0.1
1 0.1375 0.1
1 0.1625 0.1
1 0.1875 0.1
1 0.2125 0.1
1 0.2375 0.1
1 0.2625 0.1
1 0.2875 0.1
1 0.3125 0.1
1 0.3375 0.1
1 0.3625 0.1
1 0.3875 0.1
1 0.4125 0.1
1 0.4375 0.1
1 0.4625 0.1
1 0.4875 0.1
0.975 0.5 0.1
0.95 0.5 0.1
0.925 0.5 0.1
0.9 0.5 0.1
0.875 0.5 0.1
0.85 0.5 0.1
0.825 0.5 0.1
0.8 0.5 0.1
0.775 0.5 0.1
0.75 0.5 0.1
0.725 0.5 0.1
0.7 0.5 0.1
0.675 0.5 0.1
0.65 0.5 0.1
0.625 0.5 0.1
0.6 0.5 0.1
0.575 0.5 0.1
0.55 0.5 0.1
0.525 0.5 0.1
0.5 0.5 0.1
0.475 0.5 0.1
0.45 0.5 0.1
0.425 0.5 0.1
0.4 0.5 0.1
0.375 0.5 0.1
0.35 0.5 0.1
0.325 0.5 0.1
0.3 0.5 0.1
0.275 0.5 0.1
0.25 0.5 0.1
0.225 0.5 0.1
0.2 0.5 0.1
0.175 0.5 0.1
0.15 0.5 0.1
0.125 0.5 0.1
0.1 0.5 0.1
0.075 0.5 0.1
0.05 0.5 0.1
0.025 0.5 0.1
0.9875 0.5 0.1
0.9625 0.5 0.1
0.9375 0.5 0.1
0.9125 0.5 0.1
0.8875 0.5 0.1
0.8625 0.5 0.1
0.8375 0.5 0.1
0.8125 0.5 0.1
0.7875 0.5 0.1
0.7625 0.5 0.1
0.7375 0.5 0.1
0.7125 0.5 0.1
0.6875 0.5 0.1
0.6625 0.5 0.1
0.6375 0.5 0.1
0.6125 0.5 0.1
0.5875 0.5 0.1
0.5625 0.5 0.1
0.5375 0.5 0.1
0.5125 0.5 0.1
0.4875 0.5 0.1
0.4625 0.5 0.1
0.4375 0.5 0.1
0.4125 0.5 0.1
0.3875 0.5 0.1
0.3625 0.5 0.1
0.3375 0.5 0.1
0.3125 0.5 0.1
0.2875 0.5 0.1
0.2625 0.5 0.1
0.2375 0.5 0.1
0.2125 0.5 0.1
0.1875 0.5 0.1
0.1625 0.5 0.1
0.1375 0.5 0.1
0.1125 0.5 0.1
0.0875 0.5 0.1
0.0625 0.5 0.1
0.0375 0.5 0.1
0.0125 0.5 0.1
0 0.475 0.1
0 0.45 0.1
0 0.425 0.1
0 0.4 0.1
0 0.375 0.1
0 0.35 0.1
0 0.325 0.1
0 0.3 0.1
0 0.275 0.1
0 0.25 0.1
0 0.225 0.1
0 0.2 0.1
0 0.175 0.1
0 0.15 0.1
0 0.125 0.1
0 0.1 0.1
0 0.075 0.1
0 0.05 0.1
0 0.025 0.1
0 0.4875 0.1
0 0.4625 0.1
0 0.4375 0.1
0 0.4125 0.1
0 0.3875 0.1
0 0.3625 0.1
0 0.3375 0.1
0 0.3125 0.1
0 0.2875 0.1
0 0.2625 0.1
0 0.2375 0.1
0 0.2125 0.1
0 0.1875 0.1
0 0.1625 0.1
0 0.1375 0.1
0 0.1125 0.1
0 0.0875 0.1
0 0.0625 0.1
0 0.0375 0.1
0 0.0125 0.1
0.975 0.475 0.1
0.975 0.45 0.1
0.975 0.425 0.1
0.975 0.4 0.1
0.975 0.375 0.1
0.975 0.35 0.1
0.975 0.325 0.1
0.975 0.3 0.1
0.975 0.275 0.1
0.975 0.25 0.1
0.975 0.225 0.1
0.975 0.2 0.1
0.975 0.175 0.1
0.975 0.15 0.1
0.975 0.125 0.1
0.975 0.1 0.1
0.975 0.075 0.1
0.975 0.05 0.1
0.975 0.025 0.1
0.95 0.475 0.1
0.95 0.45 0.1
0.95 0.425 0.1
0.95 0.4 0.1
0.95 0.375 0.1
0.95 0.35 0.1
0.95 0.325 0.1
0.95 0.3 0.1
0.95 0.275 0.1
0.95 0.25 0.1
0.95 0.225 0.1
0.95 0.2 0.1
0.95 0.175 0.1
0.95 0.15 0.1
0.95 0.125 0.1
0.95 0.1 0.1
0.95 0.075 0.1
0.95 0.05 0.1
0.95 0.025 0.1
0.925 0.475 0.1
0.925 0.45 0.1
0.925 0.425 0.1
0.925 0.4 0.1
0.925 0.375 0.1
0.925 0.35 0.1
0.925 0.325 0.1
0.925 0.3 0.1
0.925 0.275 0.1
0.925 0.25 0.1
0.925 0.225 0.1
0.925 0.2 0.1
0.925 0.175 0.1
0.925 0.15 0.1
0.925 0.125 0.1
0.925 0.1 0.1
0.925 0.075 0.1
0.925 0.05 0.1
0.925 0.025 0.1
0.9 0.475 0.1
0.9 0.45 0.1
0.9 0.425 0.1
0.9 0.4 0.1
0.9 0.375 0.1
0.9 0.35 0.1
0.9 0.325 0.1
0.9 0.3 0.1
0.9 0.275 0.1
0.9 0.25 0.1
0.9 0.225 0.1
0.9 0.2 0.1
0.9 0.175 0.1
0.9 0.15 0.1
0.9 0.125 0.1
0.9 0.1 0.1
0.9 0.075 0.1
0.9 0.05 0.1
0.9 0.025 0.1
0.875 0.475 0.1
0.875 0.45 0.1
0.875 0.425 0.1
0.875 0.4 0.1
0.875 0.375 0.1
0.875 0.35 0.1
0.875 0.325 0.1
0.875 0.3 0.1
0.875 0.275 0.1
0.875 0.25 0.1
0.875 0.225 0.1
0.875 0.2 0.1
0.875 0.175 0.1
0.875 0.15 0.1
0.875 0.125 0.1
0.875 0.1 0.1
0.875 0.075 0.1
0.875 0.05 0.1
0.875 0.025 0.1
0.85 0.475 0.1
0.85 0.45 0.1
0.85 0.425 0.1
0.85 0.4 0.1
0.85 0.375 0.1
0.85 0.35 0.1
0.85 0.325 0.1
0.85 0.3 0.1
0.85 0.275 0.1
0.85 0.25 0.1
0.85 0.225 0.1
0.85 0.2 0.1
0.85 0.175 0.1
0.85 0.15 0.1
0.85 0.125 0.1
0.85 0.1 0.1
0.85 0.075 0.1
0.85 0.05 0.1
0.85 0.025 0.1
0.825 0.475 0.1
0.825 0.45 0.1
0.825 0.425 0.1
0.825 0.4 0.1
0.825 0.375 0.1
0.825 0.35 0.1
0.825 0.325 0.1
0.825 0.3 0.1
0.825 0.275 0.1
0.825 0.25 0.1
0.825 0.225 0.1
0.825 0.2 0.1
0.825 0.175 0.1
0.825 0.15 0.1
0.825 0.125 0.1
0.825 0.1 0.1
0.825 0.075 0.1
0.825 0.05 0.1
0.825 0.025 0.1
0.8 0.475 0.1
0.8 0.45 0.1
0.8 0.425 0.1
0.8 0.4 0.1
0.8 0.375 0.1
0.8 0.35 0.1
0.8 0.325 0.1
0.8 0.3 0.1
0.8 0.275 0.1
0.8 0.25 0.1
0.8 0.225 0.1
0.8 0.2 0.1
0.8 0.175 0.1
0.8 0.15 0.1
0.8 0.125 0.1
0.8 0.1 0.1
0.8 0.075 0.1
0.8 0.05 0.1
0.8 0.025 0.1
0.775 0.475 0.1
0.775 0.45 0.1
0.775 0.425 0.1
0.775 0.4 0.1
0.775 0.375 0.1
0.775 0.35 0.1
0.775 0.325 0.1
0.775 0.3 0.1
0.775 0.275 0.1
0.775 0.25 0.1
0.775 0.225 0.1
0.775 0.2 0.1
0.775 0.175 0.1
0.775 0.15 0.1
0.775 0.125 0.1
0.775 0.1 0.1
0.775 0.075 0.1
0.775 0.05 0.1
0.775 0.025 0.1
0.75 0.475 0.1
0.75 0.45 0.1
0.75 0.425 0.1
0.75 0.4 0.1
0.75 0.375 0.1
0.75 0.35 0.1
0.75 0.325 0.1
0.75 0.3 0.1
0.75 0.275 0.1
0.75 0.25 0.1
0.75 0.225 0.1
0.75 0.2 0.1
0.75 0.175 0.1
0.75 0.15 0.1
0.75 0.125 0.1
0.75 0.1 0.1
0.75 0.075 0.1
0.75 0.05 0.1
0.75 0.025 0.1
0.725 0.475 0.1
0.725 0.45 0.1
0.725 0.425 0.1
0.725 0.4 0.1
0.725 0.375 0.1
0.725 0.35 0.1
0.725 0.325 0.1
0.725 0.3 0.1
0.725 0.275 0.1
0.725 0.25 0.1
0.725 0.225 0.1
0.725 0.2 0.1
0.725 0.175 0.1
0.725 0.15 0.1
0.725 0.125 0.1
0.725 0.1 0.1
0.725 0.075 0.1
0.725 0.05 0.1
0.725 0.025 0.1
0.7 0.475 0.1
0.7 0.45 0.1
0.7 0.425 0.1
0.7 0.4 0.1
0.7 0.375 0.1
0.7 0.35 0.1
0.7 0.325 0.1
0.7 0.3 0.1
0.7 0.275 0.1
0.7 0.25 0.1
0.7 0.225 0.1
0.7 0.2 0.1
0.7 0.175 0.1
0.7 0.15 0.1
0.7 0.125 0.1
0.7 0.1 0.1
0.7 0.075 0.1
0.7 0.05 0.1
0.7 0.025 0.1
0.675 0.475 0.1
0.675 0.45 0.1
0.675 0.425 0.1
0.675 0.4 0.1
0.675 0.375 0.1
0.675 0.35 0.1
0.675 0.325 0.1
0.675 0.3 0.1
0.675 0.275 0.1
0.675 0.25 0.1
0.675 0.225 0.1
0.675 0.2 0.1
0.675 0.175 0.1
0.675 0.15 0.1
0.675 0.125 0.1
0.675 0.1 0.1
0.675 0.075 0.1
0.675 0.05 0.1
0.675 0.025 0.1
0.65 0.475 0.1
0.65 0.45 0.1
0.65 0.425 0.1
0.65 0.4 0.1
0.65 0.375 0.1
0.65 0.35 0.1
0.65 0.325 0.1
0.65 0.3 0.1
0.65 0.275 0.1
0.65 0.25 0.1
0.65 0.225 0.1
0.65 0.2 0.1
0.65 0.175 0.1
0.65 0.15 0.1
0.65 0.125 0.1
0.65 0.1 0.1
0.65 0.075 0.1
0.65 0.05 0.1
0.65 0.025 0.1
0.625 0.475 0.1
0.625 0.45 0.1
0.625 0.425 0.1
0.625 0.4 0.1
0.625 0.375 0.1
0.625 0.35 0.1
0.625 0.325 0.1
0.625 0.3 0.1
0.625 0.275 0.1
0.625 0.25 0.1
0.625 0.225 0.1
0.625 0.2 0.1
0.625 0.175 0.1
0.625 0.15 0.1
0.625 0.125 0.1
0.625 0.1 0.1
0.625 0.075 0.1
0.625 0.05 0.1
0.625 0.025 0.1
0.6 0.475 0.1
0.6 0.45 0.1
0.6 0.425 0.1
0.6 0.4 0.1
0.6 0.375 0.1
0.6 0.35 0.1
0.6 0.325 0.1
0.6 0.3 0.1
0.6 0.275 0.1
0.6 0.25 0.1
0.6 0.225 0.1
0.6 0.2 0.1
0.6 0.175 0.1
0.6 0.15 0.1
0.6 0.125 0.1
0.6 0.1 0.1
0.6 0.075 0.1
0.6 0.05 0.1
0.6 0.025 0.1
0.575 0.475 0.1
0.575 0.45 0.1
0.575 0.425 0.1
0.575 0.4 0.1
0.575 0.375 0.1
0.575 0.35 0.1
0.575 0.325 0.1
0.575 0.3 0.1
0.575 0.275 0.1
0.575 0.25 0.1
0.575 0.225 0.1
0.575 0.2 0.1
0.575 0.175 0.1
0.575 0.15 0.1
0.575 0.125 0.1
0.575 0.1 0.1
0.575 0.075 0.1
0.575 0.05 0.1
0.575 0.025 0.1
0.55 0.475 0.1
0.55 0.45 0.1
0.55 0.425 0.1
0.55 0.4 0.1
0.55 0.375 0.1
0.55 0.35 0.1
0.55 0.325 0.1
0.55 0.3 0.1
0.55 0.275 0.1
0.55 0.25 0.1
0.55 0.225 0.1
0.55 0.2 0.1
0.55 0.175 0.1
0.55 0.15 0.1
0.55 0.125 0.1
0.55 0.1 0.1
0.55 0.075 0.1
0.55 0.05 0.1
0.55 0.025 0.1
0.525 0.475 0.1
0.525 0.45 0.1
0.525 0.425 0.1
0.525 0.4 0.1
0.525 0.375 0.1
0.525 0.35 0.1
0.525 0.325 0.1
0.525 0.3 0.1
0.525 0.275 0.1
0.525 0.25 0.1
0.525 0.225 0.1
0.525 0.2 0.1
0.525 0.175 0.1
0.525 0.15 0.1
0.525 0.125 0.1
0.525 0.1 0.1
0.525 0.075 0.1
0.525 0.05 0.1
0.525 0.025 0.1
0.5 0.475 0.1
0.5 0.45 0.1
0.5 0.425 0.1
0.5 0.4 0.1
0.5 0.375 0.1
0.5 0.35 0.1
0.5 0.325 0.1
0.5 0.3 0.1
0.5 0.275 0.1
0.5 0.25 0.1
0.5 0.225 0.1
0.5 0.2 0.1
0.5 0.175 0.1
0.5 0.15 0.1
0.5 0.125 0.1
0.5 0.1 0.1
0.5 0.075 0.1
0.5 0.05 0.1
0.5 0.025 0.1
0.475 0.475 0.1
0.475 0.45 0.1
0.475 0.425 0.1
0.475 0.4 0.1
0.475 0.375 0.1
0.475 0.35 0.1
0.475 0.325 0.1
0.475 0.3 0.1
0.475 0.275 0.1
0.475 0.25 0.1
0.475 0.225 0.1
0.475 0.2 0.1
0.475 0.175 0.1
0.475 0.15 0.1
0.475 0.125 0.1
0.475 0.1 0.1
0.475 0.075 0.1
0.475 0.05 0.1
0.475 0.025 0.1
0.45 0.475 0.1
0.45 0.45 0.1
0.45 0.425 0.1
0.45 0.4 0.1
0.45 0.375 0.1
0.45 0.35 0.1
0.45 0.325 0.1
0.45 0.3 0.1
0.45 0.275 0.1
0.45 0.25 0.1
0.45 0.225 0.1
0.45 0.2 0.1
0.45 0.175 0.1
0.45 0.15 0.1
0.45 0.125 0.1
0.45 0.1 0.1
0.45 0.075 0.1
0.45 0.05 0.1
0.45 0.025 0.1
0.425 0.475 0.1
0.425 0.45 0.1
0.425 0.425 0.1
0.425 0.4 0.1
0.425 0.375 0.1
0.425 0.35 0.1
0.425 0.325 0.1
0.425 0.3 0.1
0.425 0.275 0.1
0.425 0.25 0.1
0.425 0.225 0.1
0.425 0.2 0.1
0.425 0.175 0.1
0.425 0.15 0.1
0.425 0.125 0.1
0.425 0.1 0.1
0.425 0.075 0.1
0.425 0.05 0.1
0.425 0.025 0.1
0.4 0.475 0.1
0.4 0.45 0.1
0.4 0.425 0.1
0.4 0.4 0.1
0.4 0.375 0.1
0.4 0.35 0.1
0.4 0.325 0.1
0.4 0.3 0.1
0.4 0.275 0.1
0.4 0.25 0.1
0.4 0.225 0.1
0.4 0.2 0.1
0.4 0.175 0.1
0.4 0.15 0.1
0.4 0.125 0.1
0.4 0.1 0.1
0.4 0.075 0.1
0.4 0.05 0.1
0.4 0.025 0.1
0.375 0.475 0.1
0.375 0.45 0.1
0.375 0.425 0.1
0.375 0.4 0.1
0.375 0.375 0.1
[...]
    <PointData>
      <DataArray type="Float64" NumberOfComponents="3" Name="Velocity" format="ascii">
0 0 0
0 0 0
0 0 0
0 0 0
0 0 0
0 0 0
0 0 0
0 0 0
0 0 0
0 0 0
0 0 0
0 0 0
0 0 0
0 0 0
0 0 0
0 0 0
0 0 0
0 0 0
0 0 0
0 0 0
0 0 0
0 0 0
0 0 0
0 0 0
0 0 0
0 0 0
0 0 0
0 0 0
0 0 0
0 0 0
0 0 0
0 0 0
0 0 0
0 0 0
0 0 0
0 0 0
0 0 0
0 0 0
0 0 0
0 0 0
0 0 0
0 0 0
0 0 0
0 0 0
0 0 0
0 0 0
0 0 0
0 0 0
0 0 0
0 0 0
0 0 0
0 0 0
0 0 0
0 0 0
0 0 0
0 0 0
0 0 0
0 0 0
0 0 0
0 0 0
0 0 0
0 0 0
0 0 0
0 0 0
0 0 0
0 0 0
0 0 0
0 0 0
0 0 0
0 0 0
0 0 0
0 0 0
0 0 0
0 0 0
0 0 0
0 0 0
0 0 0
0 0 0
0 0 0
0 0 0
0 0 0
0 0 0
0 0 0
0 0 0
0 0 0
0 0 0
0 0 0
0 0 0
0 0 0
0 0 0
0 0 0
0 0 0
0 0 0
0 0 0
0 0 0
0 0 0
0 0 0
0 0 0
0 0 0
0 0 0
0 0 0
0 0 0
0 0 0
0 0 0
0 0 0
0 0 0
0 0 0
0 0 0
0 0 0
0 0 0
0 0 0
0 0 0
0 0 0
0 0 0
0 0 0
0 0 0
0 0 0
0 0 0
0 0 0
0 0 0
0 0 0
0 0 0
-0.00283119 -0.0421527 0
-0.00996282 -0.0773779 0
-0.0204323 -0.106553 0
-0.032562 -0.130274 0
-0.0464154 -0.148731 0
-0.061572 -0.161526 0
-0.0766806 -0.169276 0
-0.0915662 -0.172117 0
-0.105899 -0.170476 0
-0.119072 -0.165192 0
-0.131007 -0.156309 0
-0.141536 -0.14447 0
-0.150533 -0.130004 0
-0.158207 -0.113351 0
-0.164479 -0.0953144 0
-0.169255 -0.075948 0
-0.172694 -0.0557514 0
-0.174704 -0.0351267 0
-0.175404 -0.0142831 0
-0.174873 0.006222 0
-0.173123 0.0264054 0
-0.170234 0.0462149 0
-0.166178 0.0652381 0
-0.160892 0.0834111 0
-0.154447 0.100422 0
-0.146843 0.11599 0
-0.138142 0.130026 0
-0.128407 0.141966 0
-0.117591 0.151572 0
-0.105852 0.158539 0
-0.0933859 0.162403 0
-0.0801999 0.163078 0
-0.0667153 0.159953 0
-0.0534436 0.152464 0
-0.0408108 0.139902 0
-0.0288483 0.121866 0
-0.0181532 0.0986309 0
-0.00920681 0.0701591 0
-0.00312573 0.0362809 0
-0.001243 -0.0205765 0
-0.00592149 -0.0605542 0
-0.0149845 -0.0927072 0
-0.0263508 -0.119139 0
-0.0393466 -0.140242 0
-0.0540265 -0.155926 0
-0.0692286 -0.166168 0
-0.0842493 -0.17147 0
-0.0989321 -0.171984 0
-0.112705 -0.168489 0
-0.125255 -0.161333 0
-0.136501 -0.150881 0
-0.14626 -0.137712 0
-0.154573 -0.122047 0
-0.161565 -0.104643 0
-0.167076 -0.0859335 0
-0.171183 -0.0660645 0
-0.173913 -0.045656 0
-0.17525 -0.0248482 0
-0.175316 -0.00406774 0
-0.17416 0.0162888 0
-0.171829 0.0363524 0
-0.168361 0.0558088 0
-0.16368 0.0744375 0
-0.157801 0.0921051 0
-0.15077 0.108413 0
-0.142595 0.123283 0
-0.133374 0.136325 0
-0.123086 0.147122 0
-0.111774 0.155485 0
-0.0996743 0.160907 0
-0.0868258 0.163195 0
-0.0734282 0.162061 0
-0.0600087 0.156817 0
-0.0470391 0.146916 0
-0.034679 0.131592 0
-0.0232848 0.110933 0
-0.0133682 0.0851089 0
-0.00569359 0.0539899 0
-0.00294006 0.0170233 0
0 0 0
0 0 0
0 0 0
0 0 0
0 0 0
0 0 0
0 0 0
0 0 0
0 0 0
0 0 0
0 0 0
0 0 0
0 0 0
0 0 0
0 0 0
0 0 0
0 0 0
0 0 0
0 0 0
0 0 0
0 0 0
0 0 0
0 0 0
0 0 0
0 0 0
0 0 0
0 0 0
0 0 0
0 0 0
0 0 0
0 0 0
0 0 0
0 0 0
0 0 0
0 0 0
0 0 0
0 0 0
0 0 0
0 0 0
-0.00446616 -0.0361362 0
-0.00439484 -0.0311709 0
-0.00378387 -0.026236 0
-0.00249633 -0.0222672 0
-0.00187809 -0.0193724 0
-0.00163245 -0.0167259 0
-0.0014843 -0.0142549 0
-0.00135912 -0.011965 0
-0.00123901 -0.0098604 0
-0.0011193 -0.00794308 0
-0.00099802 -0.00621478 0
-0.000873473 -0.00467896 0
-0.000743937 -0.00334165 0
-0.000607917 -0.00221165 0
-0.000464937 -0.00130008 0
-0.000317101 -0.000619018 0
-0.000170465 -0.000179264 0
-2.89367e-05 2.51335e-05 0
6.01179e-05 5.23158e-05 0
-0.0107725 -0.0666179 0
-0.0106991 -0.057936 0
-0.00964532 -0.0503361 0
-0.0075898 -0.0437248 0
-0.00628542 -0.0380145 0
-0.00558754 -0.0327529 0
-0.00508619 -0.0279429 0
-0.00464865 -0.0235447 0
-0.00423402 -0.0195315 0
-0.00382711 -0.015888 0
-0.00341969 -0.0126076 0
-0.00300518 -0.00968993 0
-0.0025776 -0.00714068 0
-0.00213206 -0.00497004 0
-0.00166653 -0.00319117 0
-0.00118515 -0.00181683 0
-0.000703963 -0.000852435 0
-0.000264271 -0.000279864 0
3.22602e-05 -3.71293e-05 0
-0.0197528 -0.0927098 0
-0.0190199 -0.0813641 0
-0.0174188 -0.0715111 0
-0.0149797 -0.0628096 0
-0.0131011 -0.0548874 0
-0.0117706 -0.047428 0
-0.0107054 -0.040586 0
-0.00976458 -0.034341 0
-0.00888382 -0.0286532 0
-0.00803065 -0.0234933 0
-0.00718516 -0.0188447 0
-0.00633234 -0.0147009 0
-0.00545984 -0.0110635 0
-0.00455837 -0.00793976 0
-0.00362448 -0.00533994 0
-0.00266615 -0.00327336 0
-0.00171317 -0.00174147 0
-0.000836189 -0.000727494 0
-0.000177966 -0.00018429 0
-0.0309782 -0.114168 0
-0.0293558 -0.100922 0
-0.0270775 -0.0892738 0
-0.0242393 -0.0788562 0
-0.0218578 -0.0692941 0
-0.0198197 -0.0601818 0
-0.0180611 -0.051734 0
-0.0164758 -0.0439786 0
-0.0149908 -0.0368933 0
-0.0135594 -0.0304513 0
-0.0121494 -0.0246335 0
-0.0107365 -0.0194294 0
-0.009301 -0.0148365 0
-0.00782894 -0.0108584 0
-0.00631533 -0.00750174 0
-0.00477133 -0.00477357 0
-0.00323658 -0.0026764 0
-0.0017989 -0.00120274 0
-0.000624106 -0.000328002 0
-0.0438539 -0.130886 0
-0.0412725 -0.116377 0
-0.0383276 -0.103465 0
-0.0349876 -0.0917247 0
-0.0320213 -0.0809937 0
-0.0292762 -0.0707081 0
-0.0267836 -0.0610762 0
-0.0244797 -0.0521653 0
-0.0223015 -0.0439805 0
-0.0201985 -0.0365085 0
-0.0181315 -0.0297347 0
-0.0160682 -0.023649 0
-0.0139828 -0.0182473 0
-0.0118563 -0.0135308 0
-0.00968127 -0.00950462 0
-0.00746906 -0.0061765 0
-0.00526241 -0.00355499 0
-0.00315354 -0.00164827 0
-0.00130918 -0.00046324 0
-0.0577445 -0.142903 0
-0.0542056 -0.12774 0
-0.0506802 -0.114105 0
-0.0468282 -0.10154 0
-0.0431726 -0.089996 0
-0.0397333 -0.0788952 0
-0.0365066 -0.0684406 0
-0.0334579 -0.0587081 0
-0.0305419 -0.0497198 0
-0.0277134 -0.0414752 0
-0.0249314 -0.0339676 0
-0.0221596 -0.0271904 0
-0.0193669 -0.0211403 0
-0.0165296 -0.0158188 0
-0.0136361 -0.0112323 0
-0.010694 -0.00739241 0
-0.00774132 -0.00431734 0
-0.004862 -0.00203416 0
-0.00220436 -0.000581121 0
-0.0720364 -0.150383 0
-0.0676407 -0.135061 0
-0.0636107 -0.12117 0
-0.0593207 -0.108267 0
-0.0549811 -0.0962782 0
-0.0508482 -0.084694 0
-0.0468965 -0.0737416 0
-0.0431036 -0.0634968 0
-0.0394385 -0.0539886 0
-0.0358637 -0.0452259 0
-0.0323405 -0.0372093 0
-0.0288308 -0.0299372 0
-0.0253 -0.0234097 0
-0.0217195 -0.0176307 0
-0.0180716 -0.0126103 0
-0.014356 -0.00836654 0
-0.0105991 -0.00492897 0
-0.00686601 -0.00234353 0
-0.00327313 -0.000675783 0
-0.086228 -0.153443 0
-0.0811113 -0.138416 0
-0.0766686 -0.124687 0
-0.0720212 -0.111844 0
-0.067082 -0.099805 0
-0.0622894 -0.0880874 0
-0.0576408 -0.0769513 0
-0.0531264 -0.0664856 0
-0.0487266 -0.0567272 0
-0.044412 -0.0476925 0
-0.0401476 -0.0393888 0
-0.0358957 -0.0318205 0
-0.0316188 -0.0249921 0
-0.0272834 -0.0189122 0
-0.0228639 -0.0135958 0
-0.0183486 -0.00906858 0
-0.0137467 -0.00537179 0
-0.00909648 -0.00256802 0
-0.00447424 -0.000744666 0
-0.0998759 -0.152556 0
-0.094207 -0.138168 0
-0.0894802 -0.124923 0
-0.0845627 -0.112445 0
-0.0791219 -0.100663 0
-0.0737388 -0.089124 0
-0.0684457 -0.078098 0
-0.0632532 -0.0676848 0
-0.0581543 -0.0579297 0
-0.0531282 -0.048857 0
-0.0481445 -0.0404809 0
-0.0431667 -0.0328118 0
-0.0381553 -0.0258598 0
-0.0330714 -0.0196387 0
-0.0278803 -0.0141696 0
-0.0225561 -0.00948585 0
-0.0170866 -0.00563894 0
-0.011479 -0.00270493 0
-0.00576434 -0.000787112 0
-0.112689 -0.148191 0
-0.106644 -0.134646 0
-0.101767 -0.122127 0
-0.096673 -0.11026 0
-0.0908079 -0.0990048 0
-0.0849093 -0.0879185 0
-0.0790406 -0.0772664 0
-0.073231 -0.0671544 0
-0.0674862 -0.0576363 0
-0.0617943 -0.0487438 0
-0.0561304 -0.0404984 0
-0.05046 -0.0329165 0
-0.044742 -0.0260139 0
-0.0389319 -0.0198098 0
-0.0329849 -0.0143313 0
-0.0268592 -0.00961867 0
-0.0205191 -0.00573148 0
-0.013938 -0.00275537 0
-0.00710002 -0.000803614 0
-0.124455 -0.140589 0
-0.118192 -0.128092 0
-0.113279 -0.116515 0
-0.108083 -0.105512 0
-0.101871 -0.0950356 0
-0.0955466 -0.0846397 0
-0.0891847 -0.0745892 0
-0.0828316 -0.0649974 0
-0.0765066 -0.0559255 0
-0.0702077 -0.0474124 0
-0.0639161 -0.0394856 0
-0.0575998 -0.0321672 0
-0.0512164 -0.0254785 0
-0.0447161 -0.0194435 0
-0.0380435 -0.0140946 0
-0.03114 -0.00947706 0
-0.0239456 -0.00565626 0
-0.0163995 -0.00272314 0
-0.00843936 -0.000795423 0
-0.134989 -0.130319 0
-0.128668 -0.118995 0
-0.123809 -0.108511 0
-0.118569 -0.0985496 0
-0.112102 -0.0890201 0
-0.105442 -0.0794958 0
-0.0986724 -0.0702341 0
-0.0918552 -0.0613491 0
-0.0850232 -0.0529064 0
-0.0781844 -0.0449497 0
-0.071327 -0.0375115 0
-0.0644217 -0.0306185 0
-0.0574253 -0.0242961 0
-0.0502825 -0.0185725 0
-0.0429275 -0.0134837 0
-0.0352854 -0.00907832 0
-0.0272719 -0.00542433 0
-0.0187932 -0.00261398 0
-0.00974304 -0.000764331 0
-0.144125 -0.117675 0
-0.137927 -0.107721 0
-0.133215 -0.0984582 0
-0.127979 -0.0896615 0
-0.121343 -0.0812163 0
-0.114429 -0.0727099 0
-0.107333 -0.064389 0
-0.100131 -0.0563664 0
-0.0928676 -0.0487091 0
-0.0855611 -0.0414631 0
-0.0782059 -0.0346638 0
-0.070776 -0.028341 0
-0.0632274 -0.0225229 0
-0.0554999 -0.0172403 0
-0.0475178 -0.0125311 0
-0.0391903 -0.00844511 0
-0.0304109 -0.00504984 0
-0.0210547 -0.00243503 0
-0.010975 -0.000712516 0
-0.151792 -0.102955 0
-0.145811 -0.094531 0
-0.14137 -0.0866611 0
-0.136191 -0.0791421 0
-0.129463 -0.0718854 0
-0.122372 -0.0645105 0
-0.115026 -0.057252 0
-0.107516 -0.0502194 0
-0.0998964 -0.0434782 0
-0.0921958 -0.0370742 0
-0.0844144 -0.0310436 0
-0.0765294 -0.0254174 0
-0.0684962 -0.020225 0
-0.06025 -0.0154983 0
-0.0517062 -0.011275 0
-0.0427599 -0.00760388 0
-0.0332839 -0.00454914 0
-0.0231258 -0.00219443 0
-0.0121032 -0.000642424 0
-0.158036 -0.0867654 0
-0.152281 -0.0798928 0
-0.148174 -0.0734868 0
-0.143129 -0.0673032 0
-0.136372 -0.0612895 0
-0.129168 -0.0551262 0
-0.121641 -0.0490249 0
-0.113892 -0.0430849 0
-0.105989 -0.0373666 0
-0.0979681 -0.0319136 0
-0.0898339 -0.0267607 0
-0.0815666 -0.0219383 0
-0.0731213 -0.0174755 0
-0.0644292 -0.0134032 0
-0.0553982 -0.00975754 0
-0.0459107 -0.00658374 0
-0.035822 -0.00394002 0
-0.0249559 -0.00190095 0
-0.0130999 -0.000556679 0
-0.162907 -0.069363 0
-0.157379 -0.064101 0
-0.153594 -0.0591731 0
-0.148754 -0.054375 0
-0.142007 -0.0496638 0
-0.134739 -0.0447788 0
-0.127087 -0.0399091 0
-0.119165 -0.0351422 0
-0.111049 -0.0305318 0
-0.102779 -0.0261172 0
-0.0943656 -0.0219302 0
-0.0857909 -0.0179993 0
-0.0770096 -0.0143515 0
-0.0679499 -0.0110154 0
-0.0585132 -0.0080234 0
-0.0485719 -0.00541534 0
-0.0379669 -0.00324119 0
-0.0265025 -0.00156378 0
-0.0139416 -0.000458005 0
-0.166461 -0.0511184 0
-0.161167 -0.0474857 0
-0.157661 -0.0440193 0
-0.153014 -0.0406154 0
-0.146308 -0.0372461 0
-0.139018 -0.0336886 0
-0.131296 -0.0301054 0
-0.123262 -0.0265716 0
-0.114998 -0.0231329 0
-0.10655 -0.019823 0
-0.0979308 -0.01667 0
-0.0891245 -0.0136986 0
-0.0800858 -0.0109327 0
-0.0707408 -0.00839683 0
-0.060986 -0.00611851 0
-0.0506864 -0.0041302 0
-0.0396715 -0.00247177 0
-0.0277312 -0.00119227 0
-0.0146096 -0.000349161 0
-0.168751 -0.0323957 0
-0.163692 -0.0303429 0
-0.160402 -0.0283176 0
-0.155899 -0.0263009 0
-0.149243 -0.0242807 0
-0.141966 -0.0220759 0
-0.134221 -0.0198135 0
-0.126131 -0.0175522 0
-0.117782 -0.0153286 0
-0.109224 -0.0131698 0
-0.100471 -0.0110986 0
-0.0915088 -0.0091353 0
-0.0822929 -0.00729937 0
-0.0727478 -0.00561035 0
-0.0627669 -0.00408927 0
-0.0522102 -0.00276005 0
-0.0408998 -0.00165099 0
-0.0286159 -0.000795773 0
-0.01509 -0.000232902 0
-0.169809 -0.0133744 0
-0.164947 -0.0128477 0
-0.161789 -0.0122671 0
-0.157388 -0.0116548 0
-0.150793 -0.0109966 0
-0.143559 -0.0101553 0
-0.135832 -0.00922893 0
-0.127739 -0.00826035 0
-0.119365 -0.00727575 0
-0.110762 -0.00629465 0
-0.101946 -0.00533373 0
-0.0929042 -0.00440805 0
-0.083592 -0.00353173 0
-0.0739338 -0.00271842 0
-0.0638218 -0.00198186 0
-0.0531134 -0.00133646 0
-0.0416275 -0.000797908 0
-0.029139 -0.000383538 0
-0.0153732 -0.000111938 0
-0.1696 0.0055787 0
-0.164874 0.00466691 0
-0.161789 0.00383201 0
-0.157472 0.00306566 0
-0.150955 0.00238107 0
-0.143791 0.00186685 0
-0.136121 0.00145878 0
-0.128072 0.00113205 0
-0.11973 0.000872051 0
-0.111145 0.00066757 0
-0.102336 0.000508594 0
-0.0932899 0.000385914 0
-0.0839624 0.000291208 0
-0.0742788 0.000217253 0
-0.0641321 0.000158138 0
-0.0533799 0.000109499 0
-0.0418413 6.87553e-05 0
-0.0292911 3.53697e-05 0
-0.0154542 1.10842e-05 0
-0.168082 0.0242767 0
-0.163431 0.0219716 0
-0.160415 0.01976 0
-0.156175 0.017652 0
-0.149746 0.0156475 0
-0.142672 0.013795 0
-0.135095 0.0120671 0
-0.127136 0.0104581 0
-0.11888 0.00896498 0
-0.110375 0.00758498 0
-0.101641 0.00631479 0
-0.092664 0.00515122 0
-0.0834012 0.0040919 0
-0.0737798 0.00313618 0
-0.0636948 0.0022861 0
-0.053007 0.00154743 0
-0.0415392 0.000930707 0
-0.0290709 0.00045212 0
-0.0153326 0.000133592 0
-0.165241 0.0425946 0
-0.160623 0.0389311 0
-0.15768 0.0353639 0
-0.153509 0.0319211 0
-0.147182 0.028607 0
-0.140224 0.0254381 0
-0.132774 0.0224175 0
-0.124951 0.0195546 0
-0.116834 0.0168567 0
-0.108471 0.0143288 0
-0.0998777 0.0119739 0
-0.0910424 0.00979476 0
-0.0819234 0.00779463 0
-0.0724502 0.0059793 0
-0.062522 0.00435849 0
-0.0520052 0.00294771 0
-0.04073 0.00177014 0
-0.028485 0.000858133 0
-0.015012 0.000253092 0
-0.16114 0.0601752 0
-0.156535 0.0552245 0
-0.153613 0.0503654 0
-0.149499 0.0456281 0
-0.143291 0.0410457 0
-0.136479 0.0366023 0
-0.129196 0.0323327 0
-0.121555 0.0282611 0
-0.11363 0.024404 0
-0.105468 0.0207732 0
-0.0970816 0.0173779 0
-0.0884592 0.0142258 0
-0.0795608 0.0113257 0
-0.0703197 0.00868918 0
-0.0606407 0.00633294 0
-0.0503982 0.00428152 0
-0.039433 0.00256977 0
-0.0275476 0.00124508 0
-0.0145003 0.000367166 0
-0.155824 0.0768831 0
-0.15123 0.0706504 0
-0.148273 0.0645279 0
-0.144202 0.0585423 0
-0.138129 0.0527487 0
-0.131493 0.0470928 0
-0.124416 0.0416371 0
-0.117003 0.0364199 0
-0.109325 0.0314666 0
-0.101422 0.0267957 0
-0.0933062 0.0224214 0
-0.0849658 0.0183563 0
-0.0763625 0.0146136 0
-0.067434 0.0112101 0
-0.0580923 0.00816838 0
-0.0482221 0.00552091 0
-0.0376781 0.0033128 0
-0.0262804 0.00160487 0
-0.0138093 0.000473466 0
-0.149315 0.0924589 0
-0.144734 0.0849616 0
-0.141709 0.0776018 0
-0.137682 0.070434 0
-0.131766 0.0635074 0
-0.125337 0.0567196 0
-0.118506 0.0501586 0
-0.111369 0.0438766 0
-0.10399 0.0379079 0
-0.0964043 0.0322768 0
-0.0886223 0.0270023 0
-0.0806305 0.0221008 0
-0.0723934 0.0175892 0
-0.0638537 0.013488 0
-0.054932 0.00982503 0
-0.0455254 0.00663879 0
-0.035505 0.00398293 0
-0.0247124 0.00192966 0
-0.012955 0.000569705 0
-0.141667 0.106629 0
-0.137086 0.097901 0
-0.133996 0.0893565 0
-0.130037 0.081093 0
-0.124294 0.0731257 0
-0.118102 0.0653001 0
-0.111557 0.0577302 0
-0.104743 0.0504812 0
-0.097716 0.0435951 0
-0.0905051 0.0371012 0
-0.0831171 0.0310221 0
-0.0755377 0.0253771 0
-0.067734 0.0201856 0
-0.0596543 0.0154711 0
-0.0512285 0.0112645 0
-0.0423679 0.00760898 0
-0.0329627 0.00456438 0
-0.0228795 0.00221177 0
-0.0119568 0.000653645 0
-0.132906 0.119239 0
-0.128332 0.109297 0
-0.125216 0.0996329 0
-0.121349 0.0903429 0
-0.115808 0.0814158 0
-0.109889 0.072656 0
-0.103673 0.0641892 0
-0.0972319 0.0560882 0
-0.0906101 0.0484002 0
-0.0838299 0.041158 0
-0.0768941 0.0343865 0
-0.0697876 0.0281067 0
-0.0624796 0.0223396 0
-0.0549246 0.0171098 0
-0.0470629 0.0124502 0
-0.0388208 0.00840632 0
-0.0301098 0.00504187 0
-0.0208242 0.00244379 0
-0.010838 0.000723092 0
-0.123097 0.129864 0
-0.118576 0.118812 0
-0.115481 0.108147 0
-0.111718 0.0979412 0
-0.106419 0.088175 0
-0.100818 0.0786086 0
-0.0949796 0.0693767 0
-0.0889609 0.0605574 0
-0.0827965 0.052201 0
-0.076501 0.0443421 0
-0.0700725 0.0370066 0
-0.0634947 0.030216 0
-0.0567392 0.0239914 0
-0.0497665 0.0183576 0
-0.0425278 0.0133475 0
-0.0349653 0.00900693 0
-0.0270131 0.00540078 0
-0.0185955 0.00261849 0
-0.0096255 0.000775893 0
-0.112353 0.138275 0
-0.107965 0.126212 0
-0.10493 0.114663 0
-0.101291 0.103669 0
-0.0962744 0.0932076 0
-0.0910347 0.082985 0
-0.0856204 0.0731407 0
-0.0800739 0.0637563 0
-0.0744174 0.0548834 0
-0.0686572 0.0465565 0
-0.0627865 0.038801 0
-0.0567877 0.0316377 0
-0.0506345 0.0250868 0
-0.0442935 0.019172 0
-0.0377265 0.0139245 0
-0.0308922 0.00938856 0
-0.0237475 0.00562728 0
-0.0162484 0.00272896 0
-0.00834946 0.000809938 0
-0.100803 0.144215 0
-0.0966534 0.131257 0
-0.0937252 0.118967 0
-0.0902284 0.10734 0
-0.0855369 0.0963338 0
-0.0807033 0.0856209 0
-0.0757611 0.075338 0
-0.0707343 0.065563 0
-0.0656324 0.0563444 0
-0.0604529 0.047715 0
-0.0551845 0.0396982 0
-0.0498079 0.0323133 0
-0.0442986 0.0255787 0
-0.0386291 0.0195158 0
-0.0327714 0.0141532 0
-0.0267 0.00953138 0
-0.0203946 0.00570876 0
-0.0138433 0.00276867 0
-0.00704329 0.000823179 0
-0.0886651 0.147262 0
-0.0848748 0.133615 0
-0.0820881 0.120794 0
-0.0787311 0.108727 0
-0.0743962 0.097364 0
-0.070016 0.0863601 0
-0.0655916 0.07584 0
-0.061127 0.0658714 0
-0.0566192 0.0564972 0
-0.0520582 0.0477465 0
-0.0474279 0.0396405 0
-0.0427075 0.0321962 0
-0.0378741 0.0254298 0
-0.0329053 0.01936 0
-0.0277822 0.0140113 0
-0.022494 0.00941898 0
-0.017042 0.00563435 0
-0.0114449 0.00273178 0
-0.00574324 0.000813669 0
-0.0762042 0.147226 0
-0.0729013 0.133091 0
-0.0702549 0.119939 0
-0.0670251 0.10762 0
-0.0630849 0.0961244 0
-0.0591991 0.0850685 0
-0.0553276 0.074542 0
-0.0514564 0.064599 0
-0.0475717 0.0552764 0
-0.043656 0.0466 0
-0.0396888 0.0385882 0
-0.0356475 0.0312558 0
-0.0315105 0.0246165 0
-0.0272594 0.0186858 0
-0.0228832 0.013484 0
-0.0183835 0.00904003 0
-0.0137808 0.00539592 0
-0.00912176 0.00261342 0
-0.00448789 0.000779639 0
-0.0637583 0.14373 0
-0.0609921 0.129396 0
-0.0584437 0.116147 0
-0.0553628 0.103835 0
-0.0518735 0.0924918 0
-0.0485065 0.0816561 0
-0.0452049 0.0713757 0
-0.0419431 0.0616943 0
-0.0386966 0.0526449 0
-0.0354399 0.0442499 0
-0.0321473 0.0365249 0
-0.0287947 0.0294818 0
-0.0253611 0.0231322 0
-0.0218313 0.0174888 0
-0.0182003 0.0125675 0
-0.0144792 0.00839063 0
-0.0107036 0.00498957 0
-0.0069438 0.00241049 0
-0.00331739 0.000719643 0
-0.051687 0.136307 0
-0.049401 0.122198 0
-0.0469154 0.109242 0
-0.0440664 0.0973042 0
-0.0410542 0.0864293 0
-0.0381997 0.0760898 0
-0.0354666 0.0663141 0
-0.0328162 0.0571411 0
-0.030209 0.0485981 0
-0.0276097 0.0407015 0
-0.0249877 0.0334624 0
-0.0223175 0.02689 0
-0.0195789 0.0209936 0
-0.016759 0.0157838 0
-0.0138566 0.0112732 0
-0.0108888 0.00747762 0
-0.00790107 0.00441788 0
-0.00498033 0.00212272 0
-0.00227228 0.000632838 0
-0.0402057 0.124587 0
-0.038433 0.111348 0
-0.0360226 0.0992491 0
-0.0334174 0.0880959 0
-0.0308695 0.0779536 0
-0.0285202 0.0683683 0
-0.0263544 0.059363 0
-0.0243098 0.0509592 0
-0.0223292 0.0431684 0
-0.0203685 0.0359963 0
-0.0183945 0.0294476 0
-0.0163818 0.0235282 0
-0.0143117 0.018246 0
-0.0121733 0.0136106 0
-0.00996692 0.00963276 0
-0.00771178 0.00632338 0
-0.00545665 0.00369354 0
-0.00329598 0.00175476 0
-0.00139148 0.000519541 0
-0.0295252 0.108478 0
-0.0283905 0.0967595 0
-0.0261019 0.0860406 0
-0.0236367 0.0761065 0
-0.0215338 0.0670106 0
-0.019713 0.0584869 0
-0.0181211 0.050556 0
-0.016667 0.0432081 0
-0.0152819 0.0364317 0
-0.0139194 0.0302191 0
-0.0125481 0.0245684 0
-0.0111459 0.0194832 0
-0.00969689 0.014971 0
-0.00819177 0.0110419 0
-0.00663114 0.00770623 0
-0.00503212 0.00497262 0
-0.00343984 0.0028449 0
-0.00194495 0.00131963 0
-0.000709078 0.000382461 0
-0.0198034 0.0880164 0
-0.0193904 0.0783651 0
-0.0173793 0.0694033 0
-0.0150344 0.0611205 0
-0.0133566 0.0535212 0
-0.0120844 0.0464714 0
-0.0110543 0.0399778 0
-0.0101481 0.0340034 0
-0.00929758 0.0285182 0
-0.0084638 0.023506 0
-0.00762257 0.0189619 0
-0.00675749 0.0148888 0
-0.00585685 0.0112951 0
-0.00491349 0.00819212 0
-0.00392712 0.00559171 0
-0.00290986 0.00350242 0
-0.00189667 0.00192484 0
-0.000962283 0.000845746 0
-0.000246982 0.000228327 0
-0.0114823 0.0633092 0
-0.0115797 0.0563221 0
-0.0100036 0.0494354 0
-0.00797037 0.04318 0
-0.0067505 0.0375748 0
-0.00601111 0.0324702 0
-0.00547797 0.0278094 0
-0.0050284 0.0235377 0
-0.00461093 0.0196234 0
-0.00420106 0.0160521 0
-0.0037849 0.0128207 0
-0.00335307 0.00993331 0
-0.00289859 0.00739911 0
-0.00241665 0.00523025 0
-0.0019061 0.00343965 0
-0.00137293 0.00203734 0
-0.00083794 0.00102473 0
-0.000351178 0.000387033 0
-9.55054e-06 8.1077e-05 0
-0.00526256 0.0345968 0
-0.00511596 0.0307916 0
-0.00408164 0.0263634 0
-0.00281323 0.0226015 0
-0.00216906 0.0195229 0
-0.00188836 0.0168173 0
-0.00171581 0.0143536 0
-0.00157749 0.0120902 0