<?xml version="1.0"?>
<VTKFile type="UnstructuredGrid">
  <UnstructuredGrid>
  <Piece NumberOfPoints="5412"  NumberOfCells="2638">
    <Points>
      <DataArray type="Float64" NumberOfComponents="3" format="ascii">
8.5 7.5 0.1
9 8 0.1
8.5 8.5 0.1
8 8 0.1
8.5 6 0.1
10.5 8 0.1
8.5 10 0.1
6.5 8 0.1
8.5 5 0.1
11.5 8 0.1
8.5 11 0.1
5.5 8 0.1
8.53923 7.50154 0.1
8.57822 7.50616 0.1
8.61672 7.51382 0.1
8.65451 7.52447 0.1
8.69134 7.53806 0.1
8.727 7.5545 0.1
8.76125 7.57368 0.1
8.79389 7.59549 0.1
8.82472 7.6198 0.1
8.85355 7.64645 0.1
8.8802 7.67528 0.1
8.90451 7.70611 0.1
8.92632 7.73875 0.1
8.9455 7.773 0.1
8.96194 7.80866 0.1
8.97553 7.84549 0.1
8.98618 7.88328 0.1
8.99384 7.92178 0.1
8.99846 7.96077 0.1
8.51963 7.50039 0.1
8.55877 7.50347 0.1
8.59755 7.50961 0.1
8.63572 7.51877 0.1
8.67306 7.5309 0.1
8.70933 7.54593 0.1
8.74431 7.56375 0.1
8.77779 7.58427 0.1
8.80955 7.60734 0.1
8.8394 7.63284 0.1
8.86716 7.6606 0.1
8.89266 7.69045 0.1
8.91573 7.72221 0.1
8.93625 7.75569 0.1
8.95407 7.79067 0.1
8.9691 7.82694 0.1
8.98123 7.86428 0.1
8.99039 7.90245 0.1
8.99653 7.94123 0.1
8.99961 7.98037 0.1
8.99846 8.03923 0.1
8.99384 8.07822 0.1
8.98618 8.11672 0.1
8.97553 8.15451 0.1
8.96194 8.19134 0.1
8.9455 8.227 0.1
8.92632 8.26125 0.1
8.90451 8.29389 0.1
8.8802 8.32472 0.1
8.85355 8.35355 0.1
8.82472 8.3802 0.1
8.79389 8.40451 0.1
8.76125 8.42632 0.1
8.727 8.4455 0.1
8.69134 8.46194 0.1
8.65451 8.47553 0.1
8.61672 8.48618 0.1
8.57822 8.49384 0.1
8.53923 8.49846 0.1
8.99961 8.01963 0.1
8.99653 8.05877 0.1
8.99039 8.09755 0.1
8.98123 8.13572 0.1
8.9691 8.17306 0.1
8.95407 8.20933 0.1
8.93625 8.24431 0.1
8.91573 8.27779 0.1
8.89266 8.30955 0.1
8.86716 8.3394 0.1
8.8394 8.36716 0.1
8.80955 8.39266 0.1
8.77779 8.41573 0.1
8.74431 8.43625 0.1
8.70933 8.45407 0.1
8.67306 8.4691 0.1
8.63572 8.48123 0.1
8.59755 8.49039 0.1
8.55877 8.49653 0.1
8.51963 8.49961 0.1
8.46077 8.49846 0.1
8.42178 8.49384 0.1
8.38328 8.48618 0.1
8.34549 8.47553 0.1
8.30866 8.46194 0.1
8.273 8.4455 0.1
8.23875 8.42632 0.1
8.20611 8.40451 0.1
8.17528 8.3802 0.1
8.14645 8.35355 0.1
8.1198 8.32472 0.1
8.09549 8.29389 0.1
8.07368 8.26125 0.1
8.0545 8.227 0.1
8.03806 8.19134 0.1
8.02447 8.15451 0.1
8.01382 8.11672 0.1
8.00616 8.07822 0.1
8.00154 8.03923 0.1
8.48037 8.49961 0.1
8.44123 8.49653 0.1
8.40245 8.49039 0.1
8.36428 8.48123 0.1
8.32694 8.4691 0.1
8.29067 8.45407 0.1
8.25569 8.43625 0.1
8.22221 8.41573 0.1
8.19045 8.39266 0.1
8.1606 8.36716 0.1
8.13284 8.3394 0.1
8.10734 8.30955 0.1
8.08427 8.27779 0.1
8.06375 8.24431 0.1
8.04593 8.20933 0.1
8.0309 8.17306 0.1
8.01877 8.13572 0.1
8.00961 8.09755 0.1
8.00347 8.05877 0.1
8.00039 8.01963 0.1
8.00154 7.96077 0.1
8.00616 7.92178 0.1
8.01382 7.88328 0.1
8.02447 7.84549 0.1
8.03806 7.80866 0.1
8.0545 7.773 0.1
8.07368 7.73875 0.1
8.09549 7.70611 0.1
8.1198 7.67528 0.1
8.14645 7.64645 0.1
8.17528 7.6198 0.1
8.20611 7.59549 0.1
8.23875 7.57368 0.1
8.273 7.5545 0.1
8.30866 7.53806 0.1
8.34549 7.52447 0.1
8.38328 7.51382 0.1
8.42178 7.50616 0.1
8.46077 7.50154 0.1
8.00039 7.98037 0.1
8.00347 7.94123 0.1
8.00961 7.90245 0.1
8.01877 7.86428 0.1
8.0309 7.82694 0.1
8.04593 7.79067 0.1
8.06375 7.75569 0.1
8.08427 7.72221 0.1
8.10734 7.69045 0.1
8.13284 7.6606 0.1
8.1606 7.63284 0.1
8.19045 7.60734 0.1
8.22221 7.58427 0.1
8.25569 7.56375 0.1
8.29067 7.54593 0.1
8.32694 7.5309 0.1
8.36428 7.51877 0.1
8.40245 7.50961 0.1
8.44123 7.50347 0.1
8.48037 7.50039 0.1
8.72393 6.01258 0.1
8.94504 6.05014 0.1
9.16056 6.11223 0.1
9.36777 6.19806 0.1
9.56406 6.30655 0.1
9.74698 6.43634 0.1
9.91421 6.58579 0.1
10.0637 6.75302 0.1
10.1934 6.93594 0.1
10.3019 7.13223 0.1
10.3878 7.33944 0.1
10.4499 7.55496 0.1
10.4874 7.77607 0.1
8.61214 6.00315 0.1
8.83501 6.02826 0.1
9.05367 6.07817 0.1
9.26537 6.15224 0.1
9.46744 6.24955 0.1
9.65734 6.36888 0.1
9.83269 6.50872 0.1
9.99128 6.66731 0.1
10.1311 6.84266 0.1
10.2504 7.03256 0.1
10.3478 7.23463 0.1
10.4218 7.44633 0.1
10.4717 7.66499 0.1
10.4969 7.88786 0.1
10.4874 8.22393 0.1
10.4499 8.44504 0.1
10.3878 8.66056 0.1
10.3019 8.86777 0.1
10.1934 9.06406 0.1
10.0637 9.24698 0.1
9.91421 9.41421 0.1
9.74698 9.56366 0.1
9.56406 9.69345 0.1
9.36777 9.80194 0.1
9.16056 9.88777 0.1
8.94504 9.94986 0.1
8.72393 9.98742 0.1
10.4969 8.11214 0.1
10.4717 8.33501 0.1
10.4218 8.55367 0.1
10.3478 8.76537 0.1
10.2504 8.96744 0.1
10.1311 9.15734 0.1
9.99128 9.33269 0.1
9.83269 9.49128 0.1
9.65734 9.63112 0.1
9.46744 9.75045 0.1
9.26537 9.84776 0.1
9.05367 9.92183 0.1
8.83501 9.97174 0.1
8.61214 9.99685 0.1
8.27607 9.98742 0.1
8.05496 9.94986 0.1
7.83944 9.88777 0.1
7.63223 9.80194 0.1
7.43594 9.69345 0.1
7.25302 9.56366 0.1
7.08579 9.41421 0.1
6.93634 9.24698 0.1
6.80655 9.06406 0.1
6.69806 8.86777 0.1
6.61223 8.66056 0.1
6.55014 8.44504 0.1
6.51258 8.22393 0.1
8.38786 9.99685 0.1
8.16499 9.97174 0.1
7.94633 9.92183 0.1
7.73463 9.84776 0.1
7.53256 9.75045 0.1
7.34266 9.63112 0.1
7.16731 9.49128 0.1
7.00872 9.33269 0.1
6.86888 9.15734 0.1
6.74955 8.96744 0.1
6.65224 8.76537 0.1
6.57817 8.55367 0.1
6.52826 8.33501 0.1
6.50315 8.11214 0.1
6.51258 7.77607 0.1
6.55014 7.55496 0.1
6.61223 7.33944 0.1
6.69806 7.13223 0.1
6.80655 6.93594 0.1
6.93634 6.75302 0.1
7.08579 6.58579 0.1
7.25302 6.43634 0.1
7.43594 6.30655 0.1
7.63223 6.19806 0.1
7.83944 6.11223 0.1
8.05496 6.05014 0.1
8.27607 6.01258 0.1
6.50315 7.88786 0.1
6.52826 7.66499 0.1
6.57817 7.44633 0.1
6.65224 7.23463 0.1
6.74955 7.03256 0.1
6.86888 6.84266 0.1
7.00872 6.66731 0.1
7.16731 6.50872 0.1
7.34266 6.36888 0.1
7.53256 6.24955 0.1
7.73463 6.15224 0.1
7.94633 6.07817 0.1
8.16499 6.02826 0.1
8.38786 6.00315 0.1
8.83589 5.01886 0.1
9.16756 5.07522 0.1
9.49084 5.16835 0.1
9.80165 5.29709 0.1
10.0961 5.45983 0.1
10.3705 5.65451 0.1
10.6213 5.87868 0.1
10.8455 6.12953 0.1
11.0402 6.4039 0.1
11.2029 6.69835 0.1
11.3316 7.00916 0.1
11.4248 7.33244 0.1
11.4811 7.66411 0.1
8.66821 5.00472 0.1
9.00252 5.04239 0.1
9.33051 5.11725 0.1
9.64805 5.22836 0.1
9.95116 5.37433 0.1
10.236 5.55332 0.1
10.499 5.76307 0.1
10.7369 6.00096 0.1
10.9467 6.26399 0.1
11.1257 6.54884 0.1
11.2716 6.85195 0.1
11.3828 7.16949 0.1
11.4576 7.49748 0.1
11.4953 7.83179 0.1
11.4811 8.33589 0.1
11.4248 8.66756 0.1
11.3316 8.99084 0.1
11.2029 9.30165 0.1
11.0402 9.5961 0.1
10.8455 9.87047 0.1
10.6213 10.1213 0.1
10.3705 10.3455 0.1
10.0961 10.5402 0.1
9.80165 10.7029 0.1
9.49084 10.8316 0.1
9.16756 10.9248 0.1
8.83589 10.9811 0.1
11.4953 8.16821 0.1
11.4576 8.50252 0.1
11.3828 8.83051 0.1
11.2716 9.14805 0.1
11.1257 9.45116 0.1
10.9467 9.73601 0.1
10.7369 9.99904 0.1
10.499 10.2369 0.1
10.236 10.4467 0.1
9.95116 10.6257 0.1
9.64805 10.7716 0.1
9.33051 10.8828 0.1
9.00252 10.9576 0.1
8.66821 10.9953 0.1
8.16411 10.9811 0.1
7.83244 10.9248 0.1
7.50916 10.8316 0.1
7.19835 10.7029 0.1
6.9039 10.5402 0.1
6.62953 10.3455 0.1
6.37868 10.1213 0.1
6.15451 9.87047 0.1
5.95983 9.5961 0.1
5.79709 9.30165 0.1
5.66835 8.99084 0.1
5.57522 8.66756 0.1
5.51886 8.33589 0.1
8.33179 10.9953 0.1
7.99748 10.9576 0.1
7.66949 10.8828 0.1
7.35195 10.7716 0.1
7.04884 10.6257 0.1
6.76399 10.4467 0.1
6.50096 10.2369 0.1
6.26307 9.99904 0.1
6.05332 9.73601 0.1
5.87433 9.45116 0.1
5.72836 9.14805 0.1
5.61725 8.83051 0.1
5.54239 8.50252 0.1
5.50472 8.16821 0.1
5.51886 7.66411 0.1
5.57522 7.33244 0.1
5.66835 7.00916 0.1
5.79709 6.69835 0.1
5.95983 6.4039 0.1
6.15451 6.12953 0.1
6.37868 5.87868 0.1
6.62953 5.65451 0.1
6.9039 5.45983 0.1
7.19835 5.29709 0.1
7.50916 5.16835 0.1
7.83244 5.07522 0.1
8.16411 5.01886 0.1
5.50472 7.83179 0.1
5.54239 7.49748 0.1
5.61725 7.16949 0.1
5.72836 6.85195 0.1
5.87433 6.54884 0.1
6.05332 6.26399 0.1
6.26307 6.00096 0.1
6.50096 5.76307 0.1
6.76399 5.55332 0.1
7.04884 5.37433 0.1
7.35195 5.22836 0.1
7.66949 5.11725 0.1
7.99748 5.04239 0.1
8.33179 5.00472 0.1
8.5 6.1 0.1
8.5 6.2 0.1
8.5 6.3 0.1
8.5 6.4 0.1
8.5 6.5 0.1
8.5 6.6 0.1
8.5 6.7 0.1
8.5 6.8 0.1
8.5 6.9 0.1
8.5 7 0.1
8.5 7.1 0.1
8.5 7.2 0.1
8.5 7.3 0.1
8.5 7.4 0.1
8.5 6.05 0.1
8.5 6.15 0.1
8.5 6.25 0.1
8.5 6.35 0.1
8.5 6.45 0.1
8.5 6.55 0.1
8.5 6.65 0.1
8.5 6.75 0.1
8.5 6.85 0.1
8.5 6.95 0.1
8.5 7.05 0.1
8.5 7.15 0.1
8.5 7.25 0.1
8.5 7.35 0.1
8.5 7.45 0.1
9.1 8 0.1
9.2 8 0.1
9.3 8 0.1
9.4 8 0.1
9.5 8 0.1
9.6 8 0.1
9.7 8 0.1
9.8 8 0.1
9.9 8 0.1
10 8 0.1
10.1 8 0.1
10.2 8 0.1
10.3 8 0.1
10.4 8 0.1
9.05 8 0.1
9.15 8 0.1
9.25 8 0.1
9.35 8 0.1
9.45 8 0.1
9.55 8 0.1
9.65 8 0.1
9.75 8 0.1
9.85 8 0.1
9.95 8 0.1
10.05 8 0.1
10.15 8 0.1
10.25 8 0.1
10.35 8 0.1
10.45 8 0.1
8.5 8.6 0.1
8.5 8.7 0.1
8.5 8.8 0.1
8.5 8.9 0.1
8.5 9 0.1
8.5 9.1 0.1
8.5 9.2 0.1
8.5 9.3 0.1
8.5 9.4 0.1
8.5 9.5 0.1
8.5 9.6 0.1
8.5 9.7 0.1
8.5 9.8 0.1
8.5 9.9 0.1
8.5 8.55 0.1
8.5 8.65 0.1
8.5 8.75 0.1
8.5 8.85 0.1
8.5 8.95 0.1
8.5 9.05 0.1
8.5 9.15 0.1
8.5 9.25 0.1
8.5 9.35 0.1
8.5 9.45 0.1
8.5 9.55 0.1
8.5 9.65 0.1
8.5 9.75 0.1
8.5 9.85 0.1
8.5 9.95 0.1
6.6 8 0.1
6.7 8 0.1
6.8 8 0.1
6.9 8 0.1
7 8 0.1
7.1 8 0.1
7.2 8 0.1
7.3 8 0.1
7.4 8 0.1
7.5 8 0.1
7.6 8 0.1
7.7 8 0.1
7.8 8 0.1
7.9 8 0.1
6.55 8 0.1
6.65 8 0.1
6.75 8 0.1
6.85 8 0.1
6.95 8 0.1
7.05 8 0.1
7.15 8 0.1
7.25 8 0.1
7.35 8 0.1
7.45 8 0.1
7.55 8 0.1
7.65 8 0.1
7.75 8 0.1
7.85 8 0.1
7.95 8 0.1
8.5 5.33333 0.1
8.5 5.66667 0.1
8.5 5.16667 0.1
8.5 5.5 0.1
8.5 5.83333 0.1
10.8333 8 0.1
11.1667 8 0.1
10.6667 8 0.1
11 8 0.1
11.3333 8 0.1
8.5 10.3333 0.1
8.5 10.6667 0.1
8.5 10.1667 0.1
8.5 10.5 0.1
8.5 10.8333 0.1
5.83333 8 0.1
6.16667 8 0.1
5.66667 8 0.1
6 8 0.1
6.33333 8 0.1
9.42912 7.36778 0.1
8.98107 7.14335 0.1
9.12034 7.43554 0.1
9.01433 6.66213 0.1
9.17936 7.68419 0.1
9.85922 7.57796 0.1
8.76256 7.28829 0.1
9.38426 6.90812 0.1
8.92185 7.46489 0.1
9.02088 7.58931 0.1
9.52889 7.66584 0.1
8.77428 6.9572 0.1
9.79217 7.11621 0.1
9.14334 7.82286 0.1
9.23019 7.21456 0.1
8.76547 7.42416 0.1
8.78426 6.45 0.1
10.05 7.73427 0.1
9.02751 7.71032 0.1
9.75 7.78105 0.1
8.64858 7.43517 0.1
9.37911 7.79108 0.1
9.35145 7.59348 0.1
8.67575 6.75137 0.1
8.82688 7.51565 0.1
8.89755 7.56932 0.1
9.00894 6.90235 0.1
9.31754 6.58936 0.1
8.99619 7.31062 0.1
8.67317 7.1143 0.1
8.70809 6.25 0.1
10.2334 7.80568 0.1
9.45268 7.13775 0.1
[...]
    <PointData>
      <DataArray type="Float64" NumberOfComponents="3" Name="Velocity" format="ascii">
0 0 0
0 0 0
0 0 0
0 0 0
1.05304 0.000669212 0
0.937624 7.37329e-05 0
1.0537 -0.000647679 0
0.936637 -2.02722e-05 0
1.02994 0.000734717 0
0.973203 4.30151e-05 0
1.02993 -0.000741742 0
0.975473 6.98155e-05 0
0 0 0
0 0 0
0 0 0
0 0 0
0 0 0
0 0 0
0 0 0
0 0 0
0 0 0
0 0 0
0 0 0
0 0 0
0 0 0
0 0 0
0 0 0
0 0 0
0 0 0
0 0 0
0 0 0
0 0 0
0 0 0
0 0 0
0 0 0
0 0 0
0 0 0
0 0 0
0 0 0
0 0 0
0 0 0
0 0 0
0 0 0
0 0 0
0 0 0
0 0 0
0 0 0
0 0 0
0 0 0
0 0 0
0 0 0
0 0 0
0 0 0
0 0 0
0 0 0
0 0 0
0 0 0
0 0 0
0 0 0
0 0 0
0 0 0
0 0 0
0 0 0
0 0 0
0 0 0
0 0 0
0 0 0
0 0 0
0 0 0
0 0 0
0 0 0
0 0 0
0 0 0
0 0 0
0 0 0
0 0 0
0 0 0
0 0 0
0 0 0
0 0 0
0 0 0
0 0 0
0 0 0
0 0 0
0 0 0
0 0 0
0 0 0
0 0 0
0 0 0
0 0 0
0 0 0
0 0 0
0 0 0
0 0 0
0 0 0
0 0 0
0 0 0
0 0 0
0 0 0
0 0 0
0 0 0
0 0 0
0 0 0
0 0 0
0 0 0
0 0 0
0 0 0
0 0 0
0 0 0
0 0 0
0 0 0
0 0 0
0 0 0
0 0 0
0 0 0
0 0 0
0 0 0
0 0 0
0 0 0
0 0 0
0 0 0
0 0 0
0 0 0
0 0 0
0 0 0
0 0 0
0 0 0
0 0 0
0 0 0
0 0 0
0 0 0
0 0 0
0 0 0
0 0 0
0 0 0
0 0 0
0 0 0
0 0 0
0 0 0
0 0 0
0 0 0
0 0 0
0 0 0
0 0 0
0 0 0
0 0 0
0 0 0
0 0 0
0 0 0
0 0 0
0 0 0
0 0 0
0 0 0
0 0 0
0 0 0
0 0 0
0 0 0
0 0 0
0 0 0
0 0 0
0 0 0
0 0 0
0 0 0
0 0 0
0 0 0
0 0 0
0 0 0
0 0 0
1.05583 0.013822 0
1.05268 0.026089 0
1.04701 0.0377476 0
1.03784 0.0487649 0
1.02591 0.0569399 0
1.01342 0.0610412 0
1.00028 0.0607461 0
0.986866 0.0583649 0
0.972484 0.0565446 0
0.95964 0.0515798 0
0.950432 0.0420179 0
0.943723 0.0285175 0
0.939352 0.0135114 0
1.05507 0.00625789 0
1.05449 0.0204126 0
1.04999 0.032722 0
1.04294 0.0437007 0
1.03198 0.0529458 0
1.0197 0.0594753 0
1.0072 0.0614915 0
0.993375 0.0600155 0
0.978614 0.0587208 0
0.964983 0.0549997 0
0.954461 0.0473768 0
0.947001 0.0353295 0
0.941462 0.0209038 0
0.937751 0.00698419 0
0.939272 -0.0134931 0
0.943459 -0.0284114 0
0.95002 -0.0420738 0
0.959429 -0.0515613 0
0.972483 -0.0566424 0
0.986392 -0.0580438 0
1.00141 -0.061104 0
1.01453 -0.061411 0
1.02585 -0.057303 0
1.03758 -0.0483634 0
1.04813 -0.0386309 0
1.05456 -0.0267877 0
1.05557 -0.0140715 0
0.937754 -0.00694014 0
0.941233 -0.0208682 0
0.94647 -0.0354481 0
0.954154 -0.0474254 0
0.96483 -0.0549861 0
0.978543 -0.0585596 0
0.993732 -0.0603358 0
1.00792 -0.0622777 0
1.02066 -0.0598734 0
1.03271 -0.0533138 0
1.04353 -0.0436581 0
1.05164 -0.0330524 0
1.05592 -0.0205041 0
1.0554 -0.0061203 0
1.05482 0.0130706 0
1.05234 0.0243225 0
1.04445 0.0358465 0
1.03274 0.0482868 0
1.02142 0.057529 0
1.01377 0.057757 0
1.00191 0.0545025 0
0.983114 0.0568917 0
0.968274 0.0588903 0
0.958913 0.0522244 0
0.952241 0.0401105 0
0.945874 0.0258271 0
0.93999 0.0122607 0
1.05497 0.00555442 0
1.05451 0.0186006 0
1.04887 0.0306461 0
1.03875 0.0424459 0
1.02764 0.0537295 0
1.01779 0.0585787 0
1.00813 0.057314 0
0.991952 0.0558546 0
0.974852 0.0590109 0
0.962675 0.0567994 0
0.955171 0.046692 0
0.948827 0.0330333 0
0.942753 0.019124 0
0.937753 0.00631688 0
0.93991 -0.0122936 0
0.945867 -0.0259783 0
0.952151 -0.0398457 0
0.958403 -0.0522897 0
0.968017 -0.0588503 0
0.983753 -0.0567871 0
1.00121 -0.0536641 0
1.014 -0.0581227 0
1.02193 -0.0577381 0
1.03222 -0.0484487 0
1.04431 -0.035794 0
1.05177 -0.0236844 0
1.05549 -0.0122858 0
0.937742 -0.00627439 0
0.942603 -0.0193365 0
0.948673 -0.0332575 0
0.955199 -0.0467094 0
0.962587 -0.0567998 0
0.974945 -0.058875 0
0.991673 -0.0561813 0
1.00787 -0.0565124 0
1.01847 -0.0589941 0
1.02715 -0.0533767 0
1.03886 -0.0423334 0
1.04815 -0.0306366 0
1.05392 -0.0187531 0
1.05479 -0.00562587 0
1.02902 0.0064663 0
1.02564 0.0122049 0
1.02285 0.0178192 0
1.01909 0.0219154 0
1.0131 0.0253684 0
1.00673 0.0278602 0
1.00104 0.0282837 0
0.994319 0.0279409 0
0.988181 0.025053 0
0.983673 0.0224743 0
0.978335 0.0198111 0
0.97462 0.0145443 0
0.973224 0.00731483 0
1.0296 0.00345561 0
1.02749 0.00912116 0
1.02425 0.0150948 0
1.02141 0.0200458 0
1.01645 0.0235965 0
1.01007 0.0266209 0
1.00402 0.027986 0
0.998046 0.028202 0
0.991344 0.0265725 0
0.986199 0.0235302 0
0.981568 0.020889 0
0.976217 0.0175586 0
0.974049 0.0109305 0
0.972509 0.00325672 0
0.973206 -0.00732298 0
0.974569 -0.0145025 0
0.978282 -0.0196748 0
0.983665 -0.0224785 0
0.988133 -0.0251687 0
0.994112 -0.0277254 0
1.00099 -0.0282352 0
1.00677 -0.0278721 0
1.01317 -0.0254493 0
1.01907 -0.0219569 0
1.0229 -0.0177473 0
1.02573 -0.0122267 0
1.02896 -0.00625175 0
0.972541 -0.0032832 0
0.97375 -0.0108787 0
0.975878 -0.017694 0
0.981429 -0.0208952 0
0.986111 -0.0236199 0
0.991243 -0.0266761 0
0.998094 -0.028145 0
1.00409 -0.0279149 0
1.01008 -0.0265522 0
1.01645 -0.0235237 0
1.0213 -0.0199035 0
1.02433 -0.0152088 0
1.02751 -0.00896587 0
1.02982 -0.00367357 0
1.02828 0.00526492 0
1.0239 0.012864 0
1.02139 0.0181798 0
1.01903 0.020927 0
1.01329 0.0251271 0
1.00656 0.0292266 0
1.00184 0.0277558 0
0.993302 0.0292167 0
0.989289 0.0246119 0
0.98479 0.0232868 0
0.977884 0.0222925 0
0.974871 0.0165343 0
0.975465 0.00760116 0
1.02954 0.00226543 0
1.0262 0.00887577 0
1.02232 0.0159187 0
1.02056 0.0193486 0
1.01701 0.0224862 0
1.00947 0.027553 0
1.00412 0.0279443 0
0.997952 0.0287286 0
0.990795 0.0272958 0
0.98791 0.0231569 0
0.981926 0.0228642 0
0.975639 0.0203414 0
0.974983 0.0121652 0
0.974882 0.00308395 0
0.975361 -0.00763033 0
0.974803 -0.0163213 0
0.977894 -0.0220243 0
0.984857 -0.0230096 0
0.989314 -0.0253688 0
0.992735 -0.0289807 0
1.00178 -0.0278892 0
1.00607 -0.0289872 0
1.0131 -0.0251699 0
1.01907 -0.020986 0
1.0213 -0.0182432 0
1.02377 -0.0128486 0
1.02844 -0.00551209 0
0.974861 -0.00312145 0
0.974942 -0.012005 0
0.975502 -0.0203493 0
0.981763 -0.0225668 0
0.987893 -0.0231934 0
0.990712 -0.0275313 0
0.998012 -0.0284935 0
1.00411 -0.0276865 0
1.00949 -0.027353 0
1.01711 -0.0223841 0
1.0206 -0.0192981 0
1.02231 -0.015855 0
1.02626 -0.00878919 0
1.02946 -0.00219307 0
1.07462 -0.000241794 0
1.08494 -0.000241682 0
1.09478 -9.0578e-05 0
1.10647 -0.000133006 0
1.12063 -0.000246063 0
1.13797 -0.000327093 0
1.15961 -0.00048383 0
1.18674 -0.000665713 0
1.22181 -0.000914943 0
1.26828 -0.00120633 0
1.33102 -0.00219318 0
1.42132 -0.00450495 0
1.56396 -0.0210289 0
1.57618 0.058154 0
1.07545 -6.61224e-05 0
1.08078 2.41345e-05 0
1.08974 -0.000123519 0
1.1004 -0.00014249 0
1.11321 -0.000199964 0
1.12883 -0.000262986 0
1.14808 -0.000404926 0
1.17214 -0.000535787 0
1.20301 -0.000793296 0
1.24309 -0.00101485 0
1.29661 -0.00138855 0
1.37166 -0.00250369 0
1.47592 -0.00856076 0
1.63966 -0.0232801 0
2.0476 -0.138689 0
0.281396 0.000253743 0
0.468696 0.000162709 0
0.590428 3.47217e-05 0
0.677552 0.000196156 0
0.740039 0.000156311 0
0.78515 0.000101472 0
0.820502 0.000155623 0
0.847448 0.00017271 0
0.869119 8.07839e-05 0
0.886359 7.66758e-05 0
0.900768 5.61729e-05 0
0.912624 5.31267e-05 0
0.922497 4.68766e-05 0
0.930865 4.26675e-05 0
0.129762 -0.000703786 0
0.384684 -0.00116676 0
0.535438 0.00048917 0
0.637613 0.000586995 0
0.711041 0.000205418 0
0.764172 0.000202842 0
0.80388 0.000178847 0
0.834748 0.000116649 0
0.858866 7.11295e-05 0
0.878178 8.35544e-05 0
0.893895 6.01585e-05 0
0.906935 6.22936e-05 0
0.917755 4.69864e-05 0
0.926856 4.08489e-05 0
0.93453 3.46452e-05 0
1.61121 -0.0250841 0
1.56746 0.0176326 0
1.42097 0.00417429 0
1.33102 0.00187816 0
1.26888 0.00169135 0
1.22207 0.00109191 0
1.18704 0.000721204 0
1.1599 0.000593432 0
1.13816 0.0004149 0
1.12075 0.000277572 0
1.10653 0.000163636 0
1.09488 5.90373e-05 0
1.08502 0.000191741 0
1.07473 0.000226227 0
2.03646 0.151792 0
1.62876 0.00476043 0
1.47752 0.00786224 0
1.37231 0.0027861 0
1.29642 0.00184973 0
1.24329 0.00131219 0
1.2032 0.000943779 0
1.17219 0.000662089 0
1.14814 0.000487964 0
1.12893 0.000326649 0
1.11329 0.00022306 0
1.10048 0.000137084 0
1.08974 8.78415e-05 0
1.08071 5.28194e-07 0
1.07531 8.78989e-05 0
0.930697 -9.33306e-06 0
0.922498 -1.41383e-05 0
0.913038 -1.6651e-05 0
0.901443 -1.6868e-05 0
0.887213 -1.86953e-05 0
0.870106 -2.18609e-05 0
0.848607 -2.62789e-05 0
0.822133 -3.18473e-05 0
0.787417 -3.89309e-05 0
0.742897 -4.78047e-05 0
0.681342 -5.90007e-05 0
0.597453 -7.31662e-05 0
0.478241 -7.30497e-05 0
0.288323 9.57478e-07 0
0.934051 -2.47532e-05 0
0.926807 -1.74405e-05 0
0.917937 -1.50426e-05 0
0.907504 -1.61915e-05 0
0.894679 -1.71407e-05 0
0.879118 -1.99874e-05 0
0.859986 -2.3924e-05 0
0.836205 -2.88716e-05 0
0.805936 -3.52059e-05 0
0.766749 -4.3088e-05 0
0.714473 -5.32938e-05 0
0.64284 -6.65039e-05 0
0.543543 -8.76952e-05 0
0.393247 -0.000134378 0
0.155892 -0.00041628 0
1.03877 -0.000352625 0
1.04985 -0.000795316 0
1.03371 0.000196949 0
1.04374 -0.000806522 0
1.04556 -0.000126573 0
0.953222 1.57641e-05 0
0.965499 1.05612e-05 0
0.945242 2.52098e-06 0
0.959604 3.62012e-05 0
0.970122 4.18909e-06 0
1.05041 0.000831828 0
1.03881 0.000364221 0
1.04523 0.00016645 0
1.04373 0.000736296 0
1.03369 -0.000291496 0
0.964713 -2.45258e-05 0
0.951686 -3.76775e-05 0
0.970846 -3.80979e-05 0
0.957706 1.65897e-05 0
0.944624 1.42159e-05 0
0.927273 0.19431 0
1.14587 0.233439 0
0.968351 0.372659 0
1.09877 0.0857963 0
0.70124 0.360789 0
0.896237 0.0740714 0
1.34993 0.299676 0
1.03154 0.130409 0
1.13559 0.547366 0
0.866389 0.583653 0
0.821467 0.132705 0
1.20145 0.111548 0
0.964183 0.10012 0
0.495129 0.305567 0
1.02042 0.228365 0
1.40197 0.489616 0
1.10283 0.037397 0
0.903062 0.0358811 0
0.610622 0.616013 0
0.849357 0.0560948 0
1.76868 0.40966 0
0.714757 0.14629 0
0.817748 0.231223 0
1.16286 0.0453765 0
1.28408 0.70533 0
1.06663 0.756325 0
1.1195 0.137422 0
1.05273 0.085926 0
1.11863 0.345792 0
1.30364 0.123319 0
1.08599 0.0198395 0
0.919364 0.019482 0
0.987971 0.15904 0
0.889503 0.133548 0
0.942623 0.0696646 0
1.00126 0.0945678 0
0.812327 0.768189 0
1.25065 0.415108 0
0.92264 0.269838 0
1.07351 0.0549574 0
0.841401 0.403545 0
0.781861 0.0714095 0
1.0759 0.178947 0
0.943707 0.140135 0
0.276703 0.274734 0
0.409657 0.513596 0
0.929713 0.0993443 0
1.49933 0.190923 0
1.2418 0.221529 0
1.07005 0.11364 0
0.574936 0.157135 0
1.51964 0.659003 0
1.14144 0.0953208 0
0.933014 0.0440686 0
1.12865 0.0292464 0
0.88149 0.0332008 0
1.03042 0.285819 0
0.985572 0.495138 0
1.22731 0.0656254 0
0.877136 0.100203 0
1.17453 0.161948 0
1.20005 0.799512 0
1.11319 0.0196213 0
0.863911 0.163174 0
1.02878 0.171652 0
2.15577 0.258495 0
1.12289 0.0599669 0
1.02673 0.0936259 0
1.19176 0.29117 0
0.764362 0.486582 0
0.98958 0.114687 0
0.714528 0.853252 0
0.9674 0.899936 0
0.895002 0.0168705 0
0.742693 0.223026 0
0.789423 0.314539 0
0.547649 0.412654 0
1.09161 0.443352 0
1.07005 0.251505 0
0.983499 0.0786788 0
0.726262 0.0639181 0
0.810781 0.0390696 0
0.963779 0.22662 0
0.781055 0.171862 0
0.963567 0.0799455 0
1.289 0.491738 0
0.48428 0.71403 0
0.879482 0.0567074 0
1.08571 0.0375219 0
1.41642 0.728237 0
0.445254 0.185427 0
1.66514 0.639171 0
0.914845 0.0551305 0
1.19919 0.0323632 0
1.38831 0.108831 0
0.98576 0.610997 0
1.49007 0.355011 0
0.150027 0.218413 0
0.260244 0.483273 0
0.606793 0.27025 0
1.07686 0.0100676 0
0.928169 0.0110491 0
1.28461 0.0562487 0
1.07586 0.0736939 0
1.05395 0.0617579 0
0.898416 0.338093 0
0.826968 0.0732612 0
1.0594 0.141946 0
1.02978 0.0743063 0
1.12806 0.179743 0
1.15216 0.911102 0
0.845457 0.0272157 0
1.09962 0.0589381 0
0.561187 0.797878 0
1.23332 0.153714 0
0.880792 0.217303 0
1.36209 0.199926 0
1.14809 0.0227252 0
0.974361 0.316182 0
0.907811 0.0110645 0
1.098 0.0119533 0
1.64008 0.50508 0
0.639874 0.0860385 0
0.765139 0.116494 0
0.893152 0.484853 0
1.8319 0.0601905 0
0.924315 0.0782715 0
1.70728 0.467478 0
0.964391 0.182157 0
0.968476 0.725618 0
0.827727 0.915119 0
1.04325 0.360228 0
0.738561 0.64517 0
1.1647 0.671487 0
1.18302 0.070725 0
1.15344 0.124584 0
1.35196 0.399884 0
1.01495 0.112369 0
0.101631 0.0881929 0
0.918363 0.00868511 0
1.08841 0.00849522 0
1.01243 0.0778186 0
1.55981 0.204638 0
1.37028 0.606969 0
0.917993 0.152814 0
1.09634 0.110075 0
0.946931 0.0885914 0
1.35232 0.845049 0
0.919307 0.034443 0
0.324755 0.623506 0
1.07544 0.00659208 0
0.933937 0.00653104 0
0.859555 0.12546 0
1.25081 0.10299 0
0.879345 0.0142125 0
1.18743 0.470068 0
1.09723 0.0255443 0
0.993232 0.193193 0
1.12918 0.0139398 0
0.945355 0.054533 0
0.860721 0.272006 0
0.971273 0.131912 0
1.04379 0.111123 0
0.165669 0.35694 0
1.11644 0.277313 0
1.00529 0.13519 0
0.906442 0.101072 0
0.989425 0.263702 0
1.59909 0.500683 0
0.931457 0.0260328 0
1.26799 0.318722 0
0.997668 0.0761537 0
0.76894 0.0353225 0
0.908731 0.0237585 0
0.922349 0.122989 0
0.946048 0.113593 0
1.06683 0.0404079 0
0.980504 0.0952116 0
1.56016 0.738615 0
1.07415 0.0250943 0
0.655383 0.191493 0
0.863932 0.0195341 0
0.959618 0.0646437 0
0.54433 0.547144 0
1.30095 0.242531 0
0.931667 0.0603618 0
1.45564 0.0888354 0
1.17123 0.019819 0
0.310556 0.150377 0
1.18101 0.378095 0
1.09016 0.145078 0
0.83114 0.184646 0
1.05825 0.208712 0
1.04167 0.0659333 0
0.923642 0.227431 0
0.896293 0.0513798 0
1.14782 0.0709455 0
0.92639 0.417768 0
1.13777 0.0454577 0
1.18569 0.206658 0
1.122 0.0812693 0
1.23486 0.583364 0
0.894121 0.174647 0
0.54253 0.0778282 0
1.16639 0.0951027 0
1.00348 0.41964 0
1.11717 0.0431492 0
0.806085 0.0988237 0
1.08017 0.0930189 0
1.09843 0.220573 0
0.530703 0.230246 0
0.770609 0.394203 0
0.864391 0.0754464 0
1.42214 0.258081 0
1.33975 0.0541549 0
1.05433 0.54883 0
1.2808 0.183066 0
0.932954 0.543777 0
1.2395 0.0300512 0
1.44723 0.244547 0
0.863683 0.0387385 0
1.0753 0.309286 0
1.38908 0.76289 0
1.12048 0.107493 0
0.974756 0.0693749 0
0.648336 0.507226 0
1.1445 0.150915 0
0.875065 0.676996 0
1.18729 0.855155 0
0.843442 0.100983 0
0.943378 0.164768 0
0.691337 0.27636 0
1.06657 0.642121 0
1.0588 0.0513822 0
0.396279 0.363838 0
0.961886 0.155537 0
0.608904 0.717323 0
0.971352 0.0879014 0
0.963556 0.0893577 0
0.97312 0.0980265 0
0.337325 0.325681 0
0.41336 0.26671 0
0.369559 0.225378 0
0.97389 0.0802602 0
0.982618 0.0870594 0
0.797143 0.0212657 0
0.814144 0.0188838 0
1.09386 0.0376263 0
1.09286 0.0470122 0
1.10196 0.0480386 0
1.62009 0.0931942 0
1.54078 0.13215 0
0.872377 0.369086 0
0.843909 0.332412 0
0.811195 0.358719 0
0.486887 0.460888 0
0.472885 0.396677 0
0.39749 0.433892 0
0.880321 0.529945 0
0.830331 0.490899 0
0.809668 0.536639 0
1.51774 0.0528074 0
1.56801 0.124897 0
0.87775 0.147309 0
0.878726 0.169844 0
0.890487 0.152996 0
0.89848 0.0267699 0
0.888267 0.0243105 0
0.892867 0.0348918 0
1.10022 0.0719004 0
1.08802 0.0677978 0
1.08645 0.0796736 0
0.776487 0.0165194 0
0.791287 0.0374498 0
0.829314 0.0323251 0
0.832552 0.0150118 0
1.1104 0.0091882 0
1.11756 0.0101439 0
0.890344 0.00892669 0
0.897421 0.0081264 0
1.06062 0.098296 0
1.07598 0.103339 0
1.06501 0.0901457 0
0.879859 0.0445751 0
0.88824 0.0539254 0
0.888298 0.0428849 0
0.899527 0.043163 0
1.12067 0.023987 0
1.11598 0.0308779 0
1.12314 0.036604 0
1.91337 0.48623 0
2.03637 0.398504 0
1.96082 0.378735 0
1.06679 0.15885 0
1.04581 0.157318 0
1.05127 0.177311 0
0.938977 0.0367579 0
0.9429 0.0443891 0
1.07927 0.127948 0
1.09483 0.126759 0
1.0828 0.112741 0
1.07572 0.0635471 0
1.08567 0.0571992 0
0.650302 0.320659 0
0.575987 0.333026 0
0.632424 0.388221 0
1.04921 0.0982601 0
1.05619 0.11337 0
0.44921 0.333197 0
0.463699 0.248024 0
0.89835 0.115775 0
0.892622 0.101427 0
0.881819 0.117025 0
0.845506 0.0134052 0
1.19375 0.0149955 0
1.21124 0.0171079 0
1.55118 0.203825 0
1.49089 0.126261 0
1.02502 0.254943 0
1.0525 0.269241 0
1.04325 0.241201 0
0.514954 0.360585 0
0.555316 0.287064 0
0.851431 0.225728 0
0.854614 0.202901 0
0.824199 0.205786 0
1.1435 0.0104933 0
1.15446 0.0117637 0
0.750987 0.55772 0
0.809676 0.617025 0
1.13381 0.00718038 0
1.1382 0.0179908 0
0.809411 0.780428 0
0.740821 0.783825 0
1.08058 0.0462067 0
0.90687 0.163312 0
0.902868 0.144334 0
0.700087 0.0354309 0
0.729946 0.0305842 0
1.2524 0.752406 0
1.28059 0.829293 0
1.33049 0.777337 0
1.21808 0.0317204 0
1.23097 0.0137594 0
0.725265 0.185244 0
0.762769 0.195267 0
0.748665 0.161837 0
1.25464 0.265291 0
1.28666 0.281467 0
1.26857 0.231745 0
1.2267 0.30533 0
1.22023 0.257818 0
0.781804 0.23001 0
0.760513 0.269588 0
0.804044 0.268474 0
1.16437 0.508279 0
1.18203 0.567956 0
1.20781 0.521443 0
0.995397 0.455088 0
0.964952 0.421621 0
0.951974 0.456034 0
0.560859 0.731773 0
0.500051 0.712647 0
1.2351 0.48403 0
1.26729 0.536725 0
0.848426 0.173373 0
0.869928 0.189423 0
0.876451 0.305156 0
0.829754 0.293983 0
1.61461 0.275921 0
1.53244 0.274654 0
1.52813 0.361298 0
1.22155 0.69093 0
1.18232 0.729391 0
1.06578 0.127391 0
1.07407 0.144488 0
0.766099 0.699663 0
0.713605 0.719278 0
0.771245 0.809139 0
0.677126 0.120573 0
0.643107 0.138862 0
0.686873 0.166717 0
1.1307 0.780281 0
1.12363 0.714883 0
0.945694 0.293607 0
0.982235 0.287894 0
0.956654 0.269651 0
1.21611 0.0900286 0
1.20358 0.0690108 0
1.19269 0.0893358 0
0.7498 0.337876 0
0.741181 0.300876 0
0.694067 0.316986 0
1.15888 0.321216 0
1.15164 0.286725 0
1.11924 0.30922 0
0.910276 0.449255 0
0.938684 0.493027 0
0.717035 0.102515 0
0.687034 0.0735677 0
0.796231 0.202397 0
0.360376 0.636247 0
0.307787 0.605288 0
1.10958 0.0401164 0
1.1085 0.0290529 0
1.03059 0.149326 0
1.04441 0.137034 0
0.975196 0.244805 0
0.945807 0.247628 0
1.00695 0.16699 0
1.01515 0.152262 0
0.997247 0.146716 0
0.966742 0.114947 0
0.981589 0.123321 0
0.976094 0.108317 0
0.887073 0.0859821 0
0.900201 0.0876563 0
1.11046 0.0598512 0
1.11015 0.0687542 0
1.12308 0.0702553 0
1.22453 0.10859 0
1.23884 0.0830667 0
1.49992 0.271717 0
1.37416 0.444361 0
1.32214 0.44744 0
1.34383 0.49841 0
0.838734 0.0638608 0
0.846771 0.0750663 0
0.856417 0.0662476 0
0.710626 0.500136 0
0.725229 0.422754 0
0.675728 0.426382 0
1.16651 0.259737 0
1.19148 0.245258 0
1.16673 0.221063 0
0.868734 0.112264 0
0.874964 0.130585 0
1.21192 0.214537 0
0.748698 0.047643 0
0.753693 0.0189692 0
1.19072 0.137559 0
1.20263 0.159966 0
1.21677 0.130539 0
1.67572 0.177484 0
1.98933 0.0672216 0
0.833997 0.0877327 0
0.854264 0.0871917 0
0.938619 0.0499497 0
0.948201 0.0487264 0
1.01841 0.133891 0
0.824251 0.157814 0
0.8413 0.15005 0
1.13311 0.25545 0
0.617144 0.177816 0
0.607723 0.117664 0
0.938276 0.0283426 0
0.930986 0.0351902 0
0.80587 0.0730685 0
0.81757 0.0569655 0
0.796516 0.0535029 0
0.984503 0.395758 0
0.949721 0.395115 0
1.11114 0.491909 0
1.07589 0.492811 0
1.09464 0.550229 0
0.774409 0.0537985 0
1.04152 0.189545 0
1.02579 0.197344 0
1.03996 0.219849 0
1.10021 0.0311527 0
1.09171 0.0318738 0
0.719015 0.248362 0
1.58188 0.698275 0
1.52293 0.743576 0
1.46871 0.756663 0
0.676599 0.63561 0
0.685708 0.577677 0
0.631671 0.560833 0
0.95575 0.106796 0
0.957369 0.123649 0
0.925378 0.023035 0
0.929109 0.0185705 0
0.923783 0.014986 0
0.167303 0.428231 0
0.132235 0.384018 0
1.48733 0.49502 0
1.48331 0.397713 0
1.44164 0.421022 0
1.04062 0.0807993 0
1.02942 0.0837074 0
1.03977 0.0912757 0
1.00685 0.368773 0
1.00575 0.339587 0
0.971684 0.342968 0
0.605362 0.659231 0
0.545835 0.649202 0
0.549241 0.718166 0
1.10746 0.122559 0
1.10469 0.142095 0
0.677375 0.672187 0
0.654513 0.786937 0
0.908221 0.046018 0
0.916456 0.0442915 0
0.911657 0.0352528 0
0.887436 0.194168 0
0.969614 0.0746591 0
0.96692 0.0675969 0
0.961262 0.0720964 0
0.793767 0.126907 0
0.770383 0.144392 0
0.802758 0.150452 0
1.023 0.82228 0
1.06054 0.924945 0
1.10012 0.830371 0
1.15387 0.193329 0
1.13677 0.204033 0
1.01262 0.183377 0
1.0053 0.210509 0
1.01429 0.0952805 0
1.01921 0.0858887 0
1.00858 0.0860891 0
1.03803 0.120715 0
1.02902 0.11323 0
1.02234 0.121297 0
0.741332 0.129651 0
0.743077 0.0922006 0
1.01745 0.522504 0
1.0427 0.472958 0
0.881349 0.075272 0
0.869723 0.088219 0
1.43206 0.138344 0
1.38145 0.152143 0
1.41498 0.195123 0
1.1803 0.0401822 0
1.18452 0.0255705 0
1.16781 0.0331012 0
1.39451 0.792652 0
1.34723 0.721653 0
1.2344 0.0486451 0
1.21309 0.0475231 0
1.84428 0.533073 0
1.66627 0.473201 0
0.882667 0.00677858 0
0.88753 0.0156797 0
1.03426 0.101994 0
0.807199 0.44266 0
0.863605 0.443371 0
1.07825 0.0826951 0
1.06489 0.0812746 0
1.06818 0.193664 0
0.76652 0.436953 0
0.734605 0.379931 0
1.12089 0.0171348 0
1.12503 0.00650151 0
0.70117 0.211628 0
1.10999 0.0842304 0
0.860527 0.143867 0
0.841882 0.129743 0
1.05041 0.1252 0
0.592186 0.464 0
0.938683 0.0936373 0
0.935193 0.0843239 0
0.926388 0.0883338 0
0.830946 0.0491096 0
1.19251 0.0523542 0
1.15153 0.17287 0
1.18118 0.182735 0
1.05151 0.298149 0
1.07337 0.278248 0