<?xml version="1.0"?>
<VTKFile type="UnstructuredGrid">
  <UnstructuredGrid>
  <Piece NumberOfPoints="4352"  NumberOfCells="2048">
    <Points>
      <DataArray type="Float64" NumberOfComponents="3" format="ascii">
0 0 0.1
0.2 0 0.1
0.5 0 0.1
0.8 0 0.1
1 0 0.1
0 0.2 0.1
0.2 0.2 0.1
0.5 0.2 0.1
0.8 0.2 0.1
1 0.2 0.1
0 0.5 0.1
0.2 0.5 0.1
0.8 0.5 0.1
1 0.5 0.1
0 0.8 0.1
0.2 0.8 0.1
0.5 0.8 0.1
0.8 0.8 0.1
1 0.8 0.1
0 1 0.1
0.2 1 0.1
0.5 1 0.1
0.8 1 0.1
1 1 0.1
0.025 0 0.1
0.05 0 0.1
0.075 0 0.1
0.1 0 0.1
0.125 0 0.1
0.15 0 0.1
0.175 0 0.1
0.0125 0 0.1
0.0375 0 0.1
0.0625 0 0.1
0.0875 0 0.1
0.1125 0 0.1
0.1375 0 0.1
0.1625 0 0.1
0.1875 0 0.1
0.225 0 0.1
0.25 0 0.1
0.275 0 0.1
0.3 0 0.1
0.325 0 0.1
0.35 0 0.1
0.375 0 0.1
0.4 0 0.1
0.425 0 0.1
0.45 0 0.1
0.475 0 0.1
0.2125 0 0.1
0.2375 0 0.1
0.2625 0 0.1
0.2875 0 0.1
0.3125 0 0.1
0.3375 0 0.1
0.3625 0 0.1
0.3875 0 0.1
0.4125 0 0.1
0.4375 0 0.1
0.4625 0 0.1
0.4875 0 0.1
0.525 0 0.1
0.55 0 0.1
0.575 0 0.1
0.6 0 0.1
0.625 0 0.1
0.65 0 0.1
0.675 0 0.1
0.7 0 0.1
0.725 0 0.1
0.75 0 0.1
0.775 0 0.1
0.5125 0 0.1
0.5375 0 0.1
0.5625 0 0.1
0.5875 0 0.1
0.6125 0 0.1
0.6375 0 0.1
0.6625 0 0.1
0.6875 0 0.1
0.7125 0 0.1
0.7375 0 0.1
0.7625 0 0.1
0.7875 0 0.1
0.825 0 0.1
0.85 0 0.1
0.875 0 0.1
0.9 0 0.1
0.925 0 0.1
0.95 0 0.1
0.975 0 0.1
0.8125 0 0.1
0.8375 0 0.1
0.8625 0 0.1
0.8875 0 0.1
0.9125 0 0.1
0.9375 0 0.1
0.9625 0 0.1
0.9875 0 0.1
0 0.025 0.1
0 0.05 0.1
0 0.075 0.1
0 0.1 0.1
0 0.125 0.1
0 0.15 0.1
0 0.175 0.1
0 0.0125 0.1
0 0.0375 0.1
0 0.0625 0.1
0 0.0875 0.1
0 0.1125 0.1
0 0.1375 0.1
0 0.1625 0.1
0 0.1875 0.1
0.2 0.025 0.1
0.2 0.05 0.1
0.2 0.075 0.1
0.2 0.1 0.1
0.2 0.125 0.1
0.2 0.15 0.1
0.2 0.175 0.1
0.2 0.0125 0.1
0.2 0.0375 0.1
0.2 0.0625 0.1
0.2 0.0875 0.1
0.2 0.1125 0.1
0.2 0.1375 0.1
0.2 0.1625 0.1
0.2 0.1875 0.1
0.5 0.025 0.1
0.5 0.05 0.1
0.5 0.075 0.1
0.5 0.1 0.1
0.5 0.125 0.1
0.5 0.15 0.1
0.5 0.175 0.1
0.5 0.0125 0.1
0.5 0.0375 0.1
0.5 0.0625 0.1
0.5 0.0875 0.1
0.5 0.1125 0.1
0.5 0.1375 0.1
0.5 0.1625 0.1
0.5 0.1875 0.1
0.8 0.025 0.1
0.8 0.05 0.1
0.8 0.075 0.1
0.8 0.1 0.1
0.8 0.125 0.1
0.8 0.15 0.1
0.8 0.175 0.1
0.8 0.0125 0.1
0.8 0.0375 0.1
0.8 0.0625 0.1
0.8 0.0875 0.1
0.8 0.1125 0.1
0.8 0.1375 0.1
0.8 0.1625 0.1
0.8 0.1875 0.1
1 0.025 0.1
1 0.05 0.1
1 0.075 0.1
1 0.1 0.1
1 0.125 0.1
1 0.15 0.1
1 0.175 0.1
1 0.0125 0.1
1 0.0375 0.1
1 0.0625 0.1
1 0.0875 0.1
1 0.1125 0.1
1 0.1375 0.1
1 0.1625 0.1
1 0.1875 0.1
0.025 0.2 0.1
0.05 0.2 0.1
0.075 0.2 0.1
0.1 0.2 0.1
0.125 0.2 0.1
0.15 0.2 0.1
0.175 0.2 0.1
0.0125 0.2 0.1
0.0375 0.2 0.1
0.0625 0.2 0.1
0.0875 0.2 0.1
0.1125 0.2 0.1
0.1375 0.2 0.1
0.1625 0.2 0.1
0.1875 0.2 0.1
0.225 0.2 0.1
0.25 0.2 0.1
0.275 0.2 0.1
0.3 0.2 0.1
0.325 0.2 0.1
0.35 0.2 0.1
0.375 0.2 0.1
0.4 0.2 0.1
0.425 0.2 0.1
0.45 0.2 0.1
0.475 0.2 0.1
0.2125 0.2 0.1
0.2375 0.2 0.1
0.2625 0.2 0.1
0.2875 0.2 0.1
0.3125 0.2 0.1
0.3375 0.2 0.1
0.3625 0.2 0.1
0.3875 0.2 0.1
0.4125 0.2 0.1
0.4375 0.2 0.1
0.4625 0.2 0.1
0.4875 0.2 0.1
0.525 0.2 0.1
0.55 0.2 0.1
0.575 0.2 0.1
0.6 0.2 0.1
0.625 0.2 0.1
0.65 0.2 0.1
0.675 0.2 0.1
0.7 0.2 0.1
0.725 0.2 0.1
0.75 0.2 0.1
0.775 0.2 0.1
0.5125 0.2 0.1
0.5375 0.2 0.1
0.5625 0.2 0.1
0.5875 0.2 0.1
0.6125 0.2 0.1
0.6375 0.2 0.1
0.6625 0.2 0.1
0.6875 0.2 0.1
0.7125 0.2 0.1
0.7375 0.2 0.1
0.7625 0.2 0.1
0.7875 0.2 0.1
0.825 0.2 0.1
0.85 0.2 0.1
0.875 0.2 0.1
0.9 0.2 0.1
0.925 0.2 0.1
0.95 0.2 0.1
0.975 0.2 0.1
0.8125 0.2 0.1
0.8375 0.2 0.1
0.8625 0.2 0.1
0.8875 0.2 0.1
0.9125 0.2 0.1
0.9375 0.2 0.1
0.9625 0.2 0.1
0.9875 0.2 0.1
0 0.225 0.1
0 0.25 0.1
0 0.275 0.1
0 0.3 0.1
0 0.325 0.1
0 0.35 0.1
0 0.375 0.1
0 0.4 0.1
0 0.425 0.1
0 0.45 0.1
0 0.475 0.1
0 0.2125 0.1
0 0.2375 0.1
0 0.2625 0.1
0 0.2875 0.1
0 0.3125 0.1
0 0.3375 0.1
0 0.3625 0.1
0 0.3875 0.1
0 0.4125 0.1
0 0.4375 0.1
0 0.4625 0.1
0 0.4875 0.1
0.2 0.225 0.1
0.2 0.25 0.1
0.2 0.275 0.1
0.2 0.3 0.1
0.2 0.325 0.1
0.2 0.35 0.1
0.2 0.375 0.1
0.2 0.4 0.1
0.2 0.425 0.1
0.2 0.45 0.1
0.2 0.475 0.1
0.2 0.2125 0.1
0.2 0.2375 0.1
0.2 0.2625 0.1
0.2 0.2875 0.1
0.2 0.3125 0.1
0.2 0.3375 0.1
0.2 0.3625 0.1
0.2 0.3875 0.1
0.2 0.4125 0.1
0.2 0.4375 0.1
0.2 0.4625 0.1
0.2 0.4875 0.1
0.8 0.225 0.1
0.8 0.25 0.1
0.8 0.275 0.1
0.8 0.3 0.1
0.8 0.325 0.1
0.8 0.35 0.1
0.8 0.375 0.1
0.8 0.4 0.1
0.8 0.425 0.1
0.8 0.45 0.1
0.8 0.475 0.1
0.8 0.2125 0.1
0.8 0.2375 0.1
0.8 0.2625 0.1
0.8 0.2875 0.1
0.8 0.3125 0.1
0.8 0.3375 0.1
0.8 0.3625 0.1
0.8 0.3875 0.1
0.8 0.4125 0.1
0.8 0.4375 0.1
0.8 0.4625 0.1
0.8 0.4875 0.1
1 0.225 0.1
1 0.25 0.1
1 0.275 0.1
1 0.3 0.1
1 0.325 0.1
1 0.35 0.1
1 0.375 0.1
1 0.4 0.1
1 0.425 0.1
1 0.45 0.1
1 0.475 0.1
1 0.2125 0.1
1 0.2375 0.1
1 0.2625 0.1
1 0.2875 0.1
1 0.3125 0.1
1 0.3375 0.1
1 0.3625 0.1
1 0.3875 0.1
1 0.4125 0.1
1 0.4375 0.1
1 0.4625 0.1
1 0.4875 0.1
0.025 0.5 0.1
0.05 0.5 0.1
0.075 0.5 0.1
0.1 0.5 0.1
0.125 0.5 0.1
0.15 0.5 0.1
0.175 0.5 0.1
0.0125 0.5 0.1
0.0375 0.5 0.1
0.0625 0.5 0.1
0.0875 0.5 0.1
0.1125 0.5 0.1
0.1375 0.5 0.1
0.1625 0.5 0.1
0.1875 0.5 0.1
0.825 0.5 0.1
0.85 0.5 0.1
0.875 0.5 0.1
0.9 0.5 0.1
0.925 0.5 0.1
0.95 0.5 0.1
0.975 0.5 0.1
0.8125 0.5 0.1
0.8375 0.5 0.1
0.8625 0.5 0.1
0.8875 0.5 0.1
0.9125 0.5 0.1
0.9375 0.5 0.1
0.9625 0.5 0.1
0.9875 0.5 0.1
0 0.525 0.1
0 0.55 0.1
0 0.575 0.1
0 0.6 0.1
0 0.625 0.1
0 0.65 0.1
0 0.675 0.1
0 0.7 0.1
0 0.725 0.1
0 0.75 0.1
0 0.775 0.1
0 0.5125 0.1
0 0.5375 0.1
0 0.5625 0.1
0 0.5875 0.1
0 0.6125 0.1
0 0.6375 0.1
0 0.6625 0.1
0 0.6875 0.1
0 0.7125 0.1
0 0.7375 0.1
0 0.7625 0.1
0 0.7875 0.1
0.2 0.525 0.1
0.2 0.55 0.1
0.2 0.575 0.1
0.2 0.6 0.1
0.2 0.625 0.1
0.2 0.65 0.1
0.2 0.675 0.1
0.2 0.7 0.1
0.2 0.725 0.1
0.2 0.75 0.1
0.2 0.775 0.1
0.2 0.5125 0.1
0.2 0.5375 0.1
0.2 0.5625 0.1
0.2 0.5875 0.1
0.2 0.6125 0.1
0.2 0.6375 0.1
0.2 0.6625 0.1
0.2 0.6875 0.1
0.2 0.7125 0.1
0.2 0.7375 0.1
0.2 0.7625 0.1
0.2 0.7875 0.1
0.8 0.525 0.1
0.8 0.55 0.1
0.8 0.575 0.1
0.8 0.6 0.1
0.8 0.625 0.1
0.8 0.65 0.1
0.8 0.675 0.1
0.8 0.7 0.1
0.8 0.725 0.1
0.8 0.75 0.1
0.8 0.775 0.1
0.8 0.5125 0.1
0.8 0.5375 0.1
0.8 0.5625 0.1
0.8 0.5875 0.1
0.8 0.6125 0.1
0.8 0.6375 0.1
0.8 0.6625 0.1
0.8 0.6875 0.1
0.8 0.7125 0.1
0.8 0.7375 0.1
0.8 0.7625 0.1
0.8 0.7875 0.1
1 0.525 0.1
1 0.55 0.1
1 0.575 0.1
1 0.6 0.1
1 0.625 0.1
1 0.65 0.1
1 0.675 0.1
1 0.7 0.1
1 0.725 0.1
1 0.75 0.1
1 0.775 0.1
1 0.5125 0.1
1 0.5375 0.1
1 0.5625 0.1
1 0.5875 0.1
1 0.6125 0.1
1 0.6375 0.1
1 0.6625 0.1
1 0.6875 0.1
1 0.7125 0.1
1 0.7375 0.1
1 0.7625 0.1
1 0.7875 0.1
0.025 0.8 0.1
0.05 0.8 0.1
0.075 0.8 0.1
0.1 0.8 0.1
0.125 0.8 0.1
0.15 0.8 0.1
0.175 0.8 0.1
0.0125 0.8 0.1
0.0375 0.8 0.1
0.0625 0.8 0.1
0.0875 0.8 0.1
0.1125 0.8 0.1
0.1375 0.8 0.1
0.1625 0.8 0.1
0.1875 0.8 0.1
0.225 0.8 0.1
0.25 0.8 0.1
0.275 0.8 0.1
0.3 0.8 0.1
0.325 0.8 0.1
0.35 0.8 0.1
0.375 0.8 0.1
0.4 0.8 0.1
0.425 0.8 0.1
0.45 0.8 0.1
0.475 0.8 0.1
0.2125 0.8 0.1
0.2375 0.8 0.1
0.2625 0.8 0.1
0.2875 0.8 0.1
0.3125 0.8 0.1
0.3375 0.8 0.1
0.3625 0.8 0.1
0.3875 0.8 0.1
0.4125 0.8 0.1
0.4375 0.8 0.1
0.4625 0.8 0.1
0.4875 0.8 0.1
0.525 0.8 0.1
0.55 0.8 0.1
0.575 0.8 0.1
0.6 0.8 0.1
0.625 0.8 0.1
0.65 0.8 0.1
0.675 0.8 0.1
0.7 0.8 0.1
0.725 0.8 0.1
0.75 0.8 0.1
0.775 0.8 0.1
0.5125 0.8 0.1
0.5375 0.8 0.1
0.5625 0.8 0.1
0.5875 0.8 0.1
0.6125 0.8 0.1
0.6375 0.8 0.1
0.6625 0.8 0.1
0.6875 0.8 0.1
0.7125 0.8 0.1
0.7375 0.8 0.1
0.7625 0.8 0.1
0.7875 0.8 0.1
0.825 0.8 0.1
0.85 0.8 0.1
0.875 0.8 0.1
0.9 0.8 0.1
0.925 0.8 0.1
0.95 0.8 0.1
0.975 0.8 0.1
0.8125 0.8 0.1
0.8375 0.8 0.1
0.8625 0.8 0.1
0.8875 0.8 0.1
0.9125 0.8 0.1
0.9375 0.8 0.1
0.9625 0.8 0.1
0.9875 0.8 0.1
0 0.825 0.1
0 0.85 0.1
0 0.875 0.1
0 0.9 0.1
0 0.925 0.1
0 0.95 0.1
0 0.975 0.1
0 0.8125 0.1
0 0.8375 0.1
0 0.8625 0.1
0 0.8875 0.1
0 0.9125 0.1
0 0.9375 0.1
0 0.9625 0.1
0 0.9875 0.1
0.2 0.825 0.1
0.2 0.85 0.1
0.2 0.875 0.1
0.2 0.9 0.1
0.2 0.925 0.1
0.2 0.95 0.1
0.2 0.975 0.1
0.2 0.8125 0.1
0.2 0.8375 0.1
0.2 0.8625 0.1
0.2 0.8875 0.1
0.2 0.9125 0.1
0.2 0.9375 0.1
0.2 0.9625 0.1
0.2 0.9875 0.1
0.5 0.825 0.1
0.5 0.85 0.1
0.5 0.875 0.1
0.5 0.9 0.1
0.5 0.925 0.1
0.5 0.95 0.1
0.5 0.975 0.1
0.5 0.8125 0.1
0.5 0.8375 0.1
0.5 0.8625 0.1
0.5 0.8875 0.1
0.5 0.9125 0.1
0.5 0.9375 0.1
0.5 0.9625 0.1
0.5 0.9875 0.1
0.8 0.825 0.1
0.8 0.85 0.1
0.8 0.875 0.1
0.8 0.9 0.1
0.8 0.925 0.1
0.8 0.95 0.1
0.8 0.975 0.1
0.8 0.8125 0.1
0.8 0.8375 0.1
0.8 0.8625 0.1
0.8 0.8875 0.1
0.8 0.9125 0.1
0.8 0.9375 0.1
0.8 0.9625 0.1
0.8 0.9875 0.1
1 0.825 0.1
1 0.85 0.1
1 0.875 0.1
1 0.9 0.1
1 0.925 0.1
1 0.95 0.1
1 0.975 0.1
1 0.8125 0.1
1 0.8375 0.1
1 0.8625 0.1
1 0.8875 0.1
1 0.9125 0.1
1 0.9375 0.1
1 0.9625 0.1
1 0.9875 0.1
0.025 1 0.1
0.05 1 0.1
0.075 1 0.1
0.1 1 0.1
0.125 1 0.1
0.15 1 0.1
0.175 1 0.1
0.0125 1 0.1
0.0375 1 0.1
0.0625 1 0.1
0.0875 1 0.1
0.1125 1 0.1
0.1375 1 0.1
0.1625 1 0.1
0.1875 1 0.1
0.225 1 0.1
0.25 1 0.1
0.275 1 0.1
0.3 1 0.1
0.325 1 0.1
0.35 1 0.1
0.375 1 0.1
0.4 1 0.1
0.425 1 0.1
0.45 1 0.1
0.475 1 0.1
0.2125 1 0.1
0.2375 1 0.1
0.2625 1 0.1
0.2875 1 0.1
0.3125 1 0.1
0.3375 1 0.1
0.3625 1 0.1
0.3875 1 0.1
0.4125 1 0.1
0.4375 1 0.1
0.4625 1 0.1
0.4875 1 0.1
0.525 1 0.1
0.55 1 0.1
0.575 1 0.1
0.6 1 0.1
0.625 1 0.1
0.65 1 0.1
0.675 1 0.1
0.7 1 0.1
0.725 1 0.1
0.75 1 0.1
0.775 1 0.1
0.5125 1 0.1
0.5375 1 0.1
0.5625 1 0.1
0.5875 1 0.1
0.6125 1 0.1
0.6375 1 0.1
0.6625 1 0.1
0.6875 1 0.1
0.7125 1 0.1
0.7375 1 0.1
0.7625 1 0.1
0.7875 1 0.1
0.825 1 0.1
0.85 1 0.1
0.875 1 0.1
0.9 1 0.1
0.925 1 0.1
0.95 1 0.1
0.975 1 0.1
0.8125 1 0.1
0.8375 1 0.1
0.8625 1 0.1
0.8875 1 0.1
0.9125 1 0.1
0.9375 1 0.1
0.9625 1 0.1
0.9875 1 0.1
0.025 0.025 0.1
0.025 0.05 0.1
0.025 0.075 0.1
0.025 0.1 0.1
0.025 0.125 0.1
0.025 0.15 0.1
0.025 0.175 0.1
0.05 0.025 0.1
0.05 0.05 0.1
0.05 0.075 0.1
0.05 0.1 0.1
0.05 0.125 0.1
0.05 0.15 0.1
0.05 0.175 0.1
0.075 0.025 0.1
0.075 0.05 0.1
0.075 0.075 0.1
0.075 0.1 0.1
0.075 0.125 0.1
0.075 0.15 0.1
0.075 0.175 0.1
0.1 0.025 0.1
0.1 0.05 0.1
0.1 0.075 0.1
0.1 0.1 0.1
0.1 0.125 0.1
0.1 0.15 0.1
0.1 0.175 0.1
0.125 0.025 0.1
0.125 0.05 0.1
0.125 0.075 0.1
0.125 0.1 0.1
0.125 0.125 0.1
0.125 0.15 0.1
0.125 0.175 0.1
0.15 0.025 0.1
0.15 0.05 0.1
0.15 0.075 0.1
0.15 0.1 0.1
0.15 0.125 0.1
0.15 0.15 0.1
0.15 0.175 0.1
[...]
    <PointData>
      <DataArray type="Float64" NumberOfComponents="3" Name="Velocity" format="ascii">
0 0 0
0 0 0
0 0 0
0 0 0
0 0 0
0 0 0
-0.035836 0.0389654 0
-0.0333604 -0.000864 0
-0.0296244 -0.0390246 0
0 0 0
0 0 0
-0.011255 0.0303664 0
-0.0140172 -0.0289579 0
0 0 0
0 0 0
-0.064658 0.0248993 0
-0.0595814 -2.73802e-05 0
-0.0678458 -0.0258042 0
0 0 0
0 0 0
1 0 0
1 0 0
1 0 0
0 0 0
0 0 0
0 0 0
0 0 0
0 0 0
0 0 0
0 0 0
0 0 0
0 0 0
0 0 0
0 0 0
0 0 0
0 0 0
0 0 0
0 0 0
0 0 0
0 0 0
0 0 0
0 0 0
0 0 0
0 0 0
0 0 0
0 0 0
0 0 0
0 0 0
0 0 0
0 0 0
0 0 0
0 0 0
0 0 0
0 0 0
0 0 0
0 0 0
0 0 0
0 0 0
0 0 0
0 0 0
0 0 0
0 0 0
0 0 0
0 0 0
0 0 0
0 0 0
0 0 0
0 0 0
0 0 0
0 0 0
0 0 0
0 0 0
0 0 0
0 0 0
0 0 0
0 0 0
0 0 0
0 0 0
0 0 0
0 0 0
0 0 0
0 0 0
0 0 0
0 0 0
0 0 0
0 0 0
0 0 0
0 0 0
0 0 0
0 0 0
0 0 0
0 0 0
0 0 0
0 0 0
0 0 0
0 0 0
0 0 0
0 0 0
0 0 0
0 0 0
0 0 0
0 0 0
0 0 0
0 0 0
0 0 0
0 0 0
0 0 0
0 0 0
0 0 0
0 0 0
0 0 0
0 0 0
0 0 0
0 0 0
0 0 0
-0.020735 0.00423651 0
-0.0357101 0.0127272 0
-0.0438349 0.0230123 0
-0.0483277 0.0338134 0
-0.0494846 0.037255 0
-0.0453732 0.0382174 0
-0.0406928 0.0394383 0
-0.0109488 0.00143202 0
-0.0291306 0.00811756 0
-0.040688 0.0177828 0
-0.0463324 0.0285412 0
-0.0499045 0.0355982 0
-0.0470348 0.0389041 0
-0.0428226 0.0391407 0
-0.037718 0.0394008 0
-0.0650226 0.000144033 0
-0.0980841 0.000402113 0
-0.0979763 0.000421454 0
-0.0655224 0.000700246 0
-0.0573188 0.000230987 0
-0.0478478 -0.000112404 0
-0.0405436 -0.000448623 0
-0.036347 4.16769e-05 0
-0.0856744 0.000273399 0
-0.102135 0.000417865 0
-0.0858002 0.000415179 0
-0.0581576 0.000563105 0
-0.0520889 0.000135767 0
-0.0441625 -0.000305741 0
-0.0372156 -0.000639747 0
-0.0261102 -0.00447154 0
-0.0426063 -0.0135275 0
-0.0484376 -0.0242463 0
-0.0455694 -0.0337554 0
-0.0438756 -0.0370876 0
-0.0390065 -0.03832 0
-0.0341661 -0.0389463 0
-0.0140781 -0.00148092 0
-0.0356765 -0.00861126 0
-0.0468099 -0.0188558 0
-0.0478431 -0.0293725 0
-0.0445592 -0.0361479 0
-0.0415356 -0.0379092 0
-0.0366391 -0.0387197 0
-0.0315914 -0.0389092 0
0 0 0
0 0 0
0 0 0
0 0 0
0 0 0
0 0 0
0 0 0
0 0 0
0 0 0
0 0 0
0 0 0
0 0 0
0 0 0
0 0 0
0 0 0
-0.00451937 0.019161 0
-0.0127021 0.0333839 0
-0.0224608 0.0424647 0
-0.0312788 0.0485551 0
-0.0348239 0.049832 0
-0.035375 0.0472938 0
-0.0354236 0.0437399 0
-0.00167495 0.0101545 0
-0.0082941 0.0269577 0
-0.0175319 0.0385036 0
-0.0273262 0.0454341 0
-0.0340655 0.0493545 0
-0.0343514 0.049404 0
-0.0353425 0.0459134 0
-0.0358843 0.0425841 0
-0.0358984 0.0357229 0
-0.0354204 0.0312079 0
-0.0355252 0.0274055 0
-0.0354114 0.0230549 0
-0.0353063 0.0193435 0
-0.0351083 0.0152921 0
-0.0350407 0.0132637 0
-0.0349435 0.00951531 0
-0.0345817 0.0066825 0
-0.034261 0.00396066 0
-0.0338589 0.0015681 0
-0.0349717 0.0378452 0
-0.0354278 0.0336247 0
-0.0354801 0.0293159 0
-0.0354856 0.02512 0
-0.0353599 0.0211244 0
-0.0351575 0.0174981 0
-0.035035 0.0144087 0
-0.035041 0.0110459 0
-0.0347614 0.00809076 0
-0.0343878 0.0054783 0
-0.0340343 0.00281697 0
-0.0336011 0.00027583 0
-0.0328958 -0.00342904 0
-0.0324572 -0.00558789 0
-0.0321794 -0.00847501 0
-0.0317513 -0.0106257 0
-0.0313671 -0.0135301 0
-0.0309905 -0.0168106 0
-0.0305001 -0.0199252 0
-0.0300505 -0.0236405 0
-0.0297841 -0.0274435 0
-0.0295034 -0.03151 0
-0.0294031 -0.0351799 0
-0.0331025 -0.00209918 0
-0.0326432 -0.00451745 0
-0.0322806 -0.0068627 0
-0.031946 -0.0095311 0
-0.0315743 -0.0122882 0
-0.0312048 -0.0152485 0
-0.0307331 -0.0184122 0
-0.0302805 -0.0218472 0
-0.0298557 -0.0253925 0
-0.0295867 -0.0292868 0
-0.029454 -0.0333233 0
-0.0292005 -0.0371009 0
-0.0293758 -0.0430065 0
-0.0290075 -0.046077 0
-0.0284553 -0.048539 0
-0.0261317 -0.0464078 0
-0.0185796 -0.0418827 0
-0.0104389 -0.0336338 0
-0.0035599 -0.0194514 0
-0.029655 -0.0413435 0
-0.0292006 -0.0446219 0
-0.0289223 -0.0475585 0
-0.0278374 -0.0481697 0
-0.0224917 -0.0443118 0
-0.0144746 -0.0384676 0
-0.00671334 -0.0272906 0
-0.00123012 -0.0102654 0
0 0 0
0 0 0
0 0 0
0 0 0
0 0 0
0 0 0
0 0 0
0 0 0
0 0 0
0 0 0
0 0 0
0 0 0
0 0 0
0 0 0
0 0 0
0 0 0
0 0 0
0 0 0
0 0 0
0 0 0
0 0 0
0 0 0
0 0 0
-0.0301322 0.0394544 0
-0.0251929 0.0399218 0
-0.0209219 0.0394072 0
-0.0164635 0.0386777 0
-0.0136509 0.037995 0
-0.0106438 0.0370093 0
-0.00954473 0.0361337 0
-0.00785291 0.0348577 0
-0.00861148 0.0337824 0
-0.00861843 0.0327995 0
-0.00990732 0.0315294 0
-0.0329711 0.0404579 0
-0.0278825 0.0399477 0
-0.0230245 0.039644 0
-0.0186051 0.0390657 0
-0.0150338 0.0383505 0
-0.0120725 0.0375254 0
-0.0100482 0.0365722 0
-0.00864637 0.0355573 0
-0.00820486 0.0343027 0
-0.00830278 0.0333223 0
-0.00904203 0.0321859 0
-0.0104321 0.0310165 0
-0.0246038 -0.0390564 0
-0.0205103 -0.038811 0
-0.0168666 -0.0383251 0
-0.0137931 -0.0376638 0
-0.0115529 -0.036814 0
-0.00998195 -0.0358179 0
-0.00900166 -0.0346806 0
-0.00876264 -0.033329 0
-0.0093589 -0.0321065 0
-0.0103745 -0.0310127 0
-0.011753 -0.029952 0
-0.0271034 -0.039268 0
-0.0226199 -0.0389928 0
-0.0185968 -0.0385707 0
-0.0152352 -0.0380126 0
-0.012564 -0.0372412 0
-0.0106493 -0.0363026 0
-0.0094009 -0.035243 0
-0.0087907 -0.0339826 0
-0.00901534 -0.0326725 0
-0.0097683 -0.0315145 0
-0.0110015 -0.0304456 0
-0.0127443 -0.0293967 0
0 0 0
0 0 0
0 0 0
0 0 0
0 0 0
0 0 0
0 0 0
0 0 0
0 0 0
0 0 0
0 0 0
0 0 0
0 0 0
0 0 0
0 0 0
0 0 0
0 0 0
0 0 0
0 0 0
0 0 0
0 0 0
0 0 0
0 0 0
-0.00354012 0.0677734 0
-0.00952515 0.0981911 0
-0.0148905 0.0910084 0
-0.0166601 0.046858 0
-0.0157022 0.0424612 0
-0.0141857 0.0370305 0
-0.012734 0.0333206 0
-0.00129865 0.0385091 0
-0.00640936 0.0876998 0
-0.0125062 0.0992837 0
-0.0164819 0.0735767 0
-0.0159766 0.0401497 0
-0.0150651 0.0388799 0
-0.0134654 0.035028 0
-0.0120153 0.032029 0
-0.0149389 -0.0317892 0
-0.0162038 -0.0350392 0
-0.0174739 -0.0399405 0
-0.0173686 -0.042756 0
-0.0136696 -0.0865714 0
-0.00816781 -0.0939836 0
-0.00296719 -0.0648222 0
-0.0144358 -0.0308586 0
-0.0155667 -0.0332166 0
-0.0168684 -0.036561 0
-0.0178264 -0.0376569 0
-0.0158545 -0.0692257 0
-0.0110351 -0.0948579 0
-0.00540061 -0.0839622 0
-0.00108106 -0.0367674 0
0 0 0
0 0 0
0 0 0
0 0 0
0 0 0
0 0 0
0 0 0
0 0 0
0 0 0
0 0 0
0 0 0
0 0 0
0 0 0
0 0 0
0 0 0
0 0 0
0 0 0
0 0 0
0 0 0
0 0 0
0 0 0
0 0 0
0 0 0
-0.0137007 0.028992 0
-0.0165345 0.0273577 0
-0.0191756 0.0262563 0
-0.0231145 0.0255354 0
-0.0285465 0.0250613 0
-0.0326666 0.0243036 0
-0.0372432 0.0237369 0
-0.042664 0.0228804 0
-0.0487053 0.0223823 0
-0.0543079 0.0222979 0
-0.0592057 0.0233542 0
-0.0123724 0.0296702 0
-0.0147197 0.0282027 0
-0.0177951 0.0267845 0
-0.0215264 0.0257649 0
-0.0259802 0.0252576 0
-0.0297441 0.0248328 0
-0.0347928 0.0241122 0
-0.0401941 0.0231978 0
-0.0458284 0.0224944 0
-0.0516119 0.0222305 0
-0.0572155 0.0223112 0
-0.0630216 0.0221157 0
-0.0164479 -0.0280681 0
-0.0192802 -0.0272685 0
-0.0228597 -0.0264292 0
-0.0266037 -0.0256116 0
-0.0309902 -0.0247914 0
-0.0358461 -0.0240057 0
-0.0412905 -0.0233442 0
-0.0473367 -0.0230511 0
-0.0523451 -0.023277 0
-0.0578792 -0.0231797 0
-0.062797 -0.0249015 0
-0.0150471 -0.0284609 0
-0.0177823 -0.0276366 0
-0.0209156 -0.0268131 0
-0.0246131 -0.0260088 0
-0.0287694 -0.0251512 0
-0.0333821 -0.0243306 0
-0.0384543 -0.0236036 0
-0.0439904 -0.0230717 0
-0.0496055 -0.0231989 0
-0.0551922 -0.023098 0
-0.0603824 -0.023296 0
-0.0648174 -0.0235747 0
0 0 0
0 0 0
0 0 0
0 0 0
0 0 0
0 0 0
0 0 0
0 0 0
0 0 0
0 0 0
0 0 0
0 0 0
0 0 0
0 0 0
0 0 0
0 0 0
0 0 0
0 0 0
0 0 0
0 0 0
0 0 0
0 0 0
0 0 0
-0.00442313 0.159756 0
-0.0136722 0.22844 0
-0.0273543 0.204901 0
-0.05992 0.0518944 0
-0.0658501 0.0465972 0
-0.0655757 0.034256 0
-0.0649949 0.0269373 0
-0.00156195 0.0912727 0
-0.00857012 0.205234 0
-0.0198686 0.228183 0
-0.0364113 0.152759 0
-0.0641851 0.0427786 0
-0.0659829 0.0375808 0
-0.0653053 0.0296187 0
-0.0658087 0.0241262 0
-0.063733 0.0220863 0
-0.0622167 0.0206749 0
-0.061519 0.0192724 0
-0.0612198 0.0166937 0
-0.0607831 0.0151947 0
-0.0600028 0.0135792 0
-0.0594729 0.0114111 0
-0.0594962 0.00865647 0
-0.0591834 0.00704734 0
-0.0590354 0.00511303 0
-0.0592615 0.00153621 0
-0.0632347 0.0233825 0
-0.0627834 0.0212801 0
-0.0620434 0.0193378 0
-0.0612787 0.0176267 0
-0.060982 0.0159234 0
-0.0603514 0.0140417 0
-0.059658 0.0122131 0
-0.059388 0.0100196 0
-0.0592599 0.00814035 0
-0.0590462 0.00600365 0
-0.0589467 0.00365874 0
-0.059362 0.00126245 0
-0.0602817 -0.00147371 0
-0.0608625 -0.00368608 0
-0.0611012 -0.00569377 0
-0.0615004 -0.00749216 0
-0.0618787 -0.00882734 0
-0.0622005 -0.0122146 0
-0.0628434 -0.0137835 0
-0.0638931 -0.0149795 0
-0.0645879 -0.0172761 0
-0.0649415 -0.0188478 0
-0.067171 -0.0212047 0
-0.0600586 -0.0007518 0
-0.0604844 -0.00289533 0
-0.0609108 -0.0049671 0
-0.0612748 -0.00694236 0
-0.0617082 -0.00900436 0
-0.0619695 -0.0104529 0
-0.0624855 -0.0123007 0
-0.063393 -0.0144317 0
-0.0641524 -0.0160155 0
-0.064759 -0.0181067 0
-0.0657049 -0.0204449 0
-0.0661442 -0.0229096 0
-0.0677324 -0.02948 0
-0.069244 -0.0368937 0
-0.0687562 -0.0473938 0
-0.0567182 -0.0636237 0
-0.0287183 -0.201038 0
-0.0140121 -0.218638 0
-0.00438911 -0.150643 0
-0.0680757 -0.0251204 0
-0.0676735 -0.0317731 0
-0.0669021 -0.0403321 0
-0.0697749 -0.0526432 0
-0.0419257 -0.15187 0
-0.0204875 -0.220304 0
-0.00848836 -0.194977 0
-0.00147361 -0.0857022 0
0 0 0
0 0 0
0 0 0
0 0 0
0 0 0
0 0 0
0 0 0
0 0 0
0 0 0
0 0 0
0 0 0
0 0 0
0 0 0
0 0 0
0 0 0
-0.0678998 0.0243929 0
-0.0706871 0.0251076 0
-0.0718648 0.0262785 0
-0.0566679 0.0236706 0
0.0443115 0.0144155 0
0.259167 0.00691565 0
0.579609 0.00187613 0
-0.0657849 0.0252195 0
-0.0696618 0.024587 0
-0.0722275 0.0256136 0
-0.0660194 0.025512 0
-0.020967 0.0186313 0
0.138274 0.0104257 0
0.406484 0.00407259 0
0.777761 0.000602854 0
-0.0641487 0.000647577 0
-0.0662374 0.000728992 0
-0.0659125 0.000952525 0
-0.0511355 0.000842159 0
0.0779739 0.000972688 0
0.297258 0.000675548 0
0.605485 0.000238595 0
-0.0629085 0.000361642 0
-0.0656797 0.000612893 0
-0.0676944 0.00077741 0
-0.0648712 0.000400839 0
0.00199565 0.000827642 0
0.176469 0.000882127 0
0.440377 0.000457348 0
0.792169 8.36647e-05 0
-0.071153 -0.0252121 0
-0.0724369 -0.026693 0
-0.0714498 -0.0288405 0
-0.0536596 -0.0240828 0
0.0482901 -0.0151405 0
0.264049 -0.00738219 0
0.583038 -0.00212439 0
-0.0681291 -0.025184 0
-0.0710244 -0.025307 0
-0.0712814 -0.025633 0
-0.0684428 -0.0281161 0
-0.0181043 -0.0200921 0
0.143095 -0.010953 0
0.411014 -0.00434012 0
0.779469 -0.000677201 0
0 0 0
0 0 0
0 0 0
0 0 0
0 0 0
0 0 0
0 0 0
0 0 0
0 0 0
0 0 0
0 0 0
0 0 0
0 0 0
0 0 0
0 0 0
1 0 0
1 0 0
1 0 0
1 0 0
1 0 0
1 0 0
1 0 0
1 0 0
1 0 0
1 0 0
1 0 0
1 0 0
1 0 0
1 0 0
1 0 0
1 0 0
1 0 0
1 0 0
1 0 0
1 0 0
1 0 0
1 0 0
1 0 0
1 0 0
1 0 0
1 0 0
1 0 0
1 0 0
1 0 0
1 0 0
1 0 0
1 0 0
1 0 0
1 0 0
1 0 0
1 0 0
1 0 0
1 0 0
1 0 0
1 0 0
1 0 0
1 0 0
1 0 0
1 0 0
1 0 0
1 0 0
1 0 0
1 0 0
1 0 0
1 0 0
1 0 0
1 0 0
1 0 0
1 0 0
1 0 0
1 0 0
1 0 0
1 0 0
1 0 0
1 0 0
1 0 0
1 0 0
1 0 0
1 0 0
1 0 0
1 0 0
1 0 0
1 0 0
1 0 0
1 0 0
1 0 0
1 0 0
1 0 0
1 0 0
1 0 0
1 0 0
0.000130638 -0.000153531 0
-0.000347647 3.42872e-05 0
-0.00108472 0.00100899 0
-0.00191492 0.00282783 0
-0.00279162 0.00556157 0
-0.00363679 0.00928154 0
-0.00426086 0.0139246 0
-6.61529e-05 0.000245682 0
-0.00155001 0.00136737 0
-0.00353023 0.00364516 0
-0.00570419 0.00710147 0
-0.00805477 0.0118021 0
-0.0104177 0.017898 0
-0.0121324 0.0253207 0
-0.00106699 0.000859246 0
-0.00393363 0.00316546 0
-0.00733807 0.00680617 0
-0.0109451 0.011577 0
-0.0149238 0.0174246 0
-0.0192141 0.024668 0
-0.0223037 0.0334701 0
-0.00299582 0.00155626 0
-0.00763524 0.00513419 0
-0.0124384 0.0101594 0
-0.0173507 0.0161607 0
-0.0227909 0.022728 0
-0.0290533 0.0302949 0
-0.0343471 0.0395207 0
-0.00592192 0.00226497 0
-0.0127516 0.00720516 0
-0.0189366 0.0137976 0
-0.0246842 0.0208713 0
-0.0325813 0.0288525 0
-0.0384267 0.0443229 0
-0.0383993 0.0478463 0
-0.00988011 0.00297734 0
-0.0192468 0.00917698 0
-0.0268192 0.0171228 0
-0.0335851 0.0265787 0
-0.0419129 0.0405604 0
-0.0420667 0.0439295 0
-0.0395353 0.0455771 0
-0.0148682 0.00368821 0
-0.0270201 0.0111154 0
-0.0354628 0.0195346 0
-0.0428827 0.0265145 0
-0.0464497 0.0393437 0
-0.0440004 0.0413091 0
-0.0401767 0.0431839 0
0.000195909 -7.14903e-05 0
8.50845e-05 -8.58894e-05 0
6.10499e-05 -0.000197703 0
-7.45955e-05 -0.000143165 0
-1.08273e-05 -0.000253496 0
-0.00010913 -0.000213612 0
-0.000720687 0.000419631 0
-0.000249338 -5.56958e-05 0
-0.000391247 0.000215286 0
-0.00151573 0.00180989 0
-0.000559032 0.000609388 0
-0.000714512 0.00112712 0
-0.0023706 0.00407421 0
-0.000887241 0.0017841 0
-0.00104667 0.00258106 0
-0.00324707 0.00730006 0
-0.00121684 0.00352856 0
-0.00135823 0.00462196 0
-0.00401622 0.0115133 0
-0.0014987 0.00585657 0
-0.00158389 0.00720709 0
-0.00446895 0.0165043 0
-0.00165955 0.00865202 0
0.000224916 5.86043e-05 0
0.000256206 -1.57854e-05 0
0.000113276 1.97648e-05 0
-0.00072262 0.000675925 0
-0.000290935 0.00021023 0
-0.00082021 0.000622628 0
-0.00252678 0.00236207 0
-0.00147044 0.00129531 0
-0.0021407 0.00222751 0
-0.00461371 0.00522539 0
-0.00287438 0.00342988 0
-0.00360721 0.00490152 0
-0.00686873 0.0092865 0
-0.0043913 0.006664 0
-0.00517468 0.00872644 0
-0.00927164 0.0146723 0
-0.00597845 0.011111 0
-0.00671383 0.0138159 0
-0.0114366 0.0214932 0
-0.00738826 0.0168216 0
-0.00784883 0.0200627 0
-0.0126226 0.0293462 0
-0.00819805 0.0234745 0
-0.000205362 0.000265547 0
7.31319e-05 0.000164265 0
-0.000456125 0.000563738 0
-0.00239422 0.00184083 0
-0.00141926 0.00125168 0
-0.00258521 0.00225683 0
-0.00561998 0.00483831 0
-0.00390885 0.00357979 0
-0.00527243 0.00520796 0
-0.00911318 0.00905526 0
-0.00670234 0.0071338 0
-0.00817519 0.0093495 0
-0.0128572 0.014349 0
-0.00971762 0.011868 0
-0.0113393 0.0147166 0
-0.0170825 0.0208631 0
-0.0130162 0.0179356 0
-0.014616 0.0215569 0
-0.021132 0.0289524 0
-0.016058 0.0255667 0
-0.0169839 0.0298557 0
-0.0228218 0.0381376 0
-0.0175435 0.0342388 0
-0.00116504 0.000517774 0
-0.000620576 0.000400783 0
-0.00191191 0.00122931 0
-0.00525095 0.00313149 0
-0.00367097 0.00249249 0
-0.00561565 0.00415312 0
-0.0100609 0.0075101 0
-0.00766952 0.00616119 0
-0.00972528 0.00846086 0
-0.014856 0.0130459 0
-0.0118266 0.011021 0
-0.0140122 0.0138166 0
-0.0198108 0.0193467 0
-0.0162355 0.0168083 0
-0.0187454 0.0200652 0
-0.0259048 0.0264111 0
-0.0213969 0.0236328 0
-0.0240375 0.0275393 0
-0.032717 0.0347261 0
-0.0266944 0.0320004 0
-0.0280865 0.0368086 0
-0.0342932 0.044253 0
-0.0282917 0.0415872 0
-0.00270675 0.000758574 0
-0.00186344 0.000646651 0
-0.00432999 0.00193654 0
-0.00938784 0.00447393 0
-0.00715689 0.00381273 0
-0.0100085 0.00617791 0
-0.0159597 0.0103663 0
-0.0128185 0.00892392 0
-0.015499 0.0119452 0
-0.0216865 0.0173556 0
-0.0181387 0.0151052 0
-0.0209474 0.0183645 0
-0.0281533 0.0243654 0
-0.0237944 0.0219065 0
-0.0271585 0.0259938 0
-0.0374111 0.0356215 0
-0.0308351 0.030746 0
-0.0347876 0.0347161 0
-0.0390681 0.0463709 0
-0.0375789 0.0383231 0
-0.0389474 0.0416136 0
-0.0379761 0.0486924 0
-0.0388578 0.0451139 0
-0.00485513 0.00100387 0
-0.00370681 0.000893233 0
-0.00777722 0.0026542 0
-0.0148022 0.00578535 0
-0.0119433 0.00515482 0
-0.0158457 0.00821752 0
-0.0233286 0.0129969 0
-0.0194721 0.0117132 0
-0.0226917 0.0154841 0
-0.0303295 0.0216037 0
-0.0257178 0.0195122 0
-0.0286158 0.0237252 0
-0.0377113 0.0325012 0
-0.032264 0.0277859 0
-0.0385289 0.031748 0
-0.0432007 0.0426154 0
-0.0429967 0.0363982 0
-0.0411619 0.0438093 0
-0.0401914 0.0456637 0
-0.0391854 0.0472291 0
-0.0383397 0.0474657 0
-0.037384 0.0467907 0
-0.0362836 0.048814 0
-0.00762433 0.00125125 0
-0.00616542 0.00114255 0
-0.0122489 0.00337894 0
-0.0214242 0.00710515 0
-0.017975 0.00648517 0
-0.0230023 0.0102163 0
-0.0315277 0.0154324 0
-0.0274019 0.0142639 0
-0.0312414 0.0184626 0
-0.0388532 0.0232709 0
-0.0348887 0.0226576 0
-0.0387311 0.0268933 0
-0.0470519 0.0310863 0
-0.0428507 0.0324631 0
-0.0448972 0.0401091 0
-0.0451518 0.0417219 0
-0.0435512 0.0435923 0
-0.0423757 0.0435384 0
-0.0421683 0.0427781 0
-0.0415316 0.0441336 0
-0.0397682 0.0449529 0
-0.0377765 0.0435413 0
-0.0376699 0.0455764 0
-0.00922405 0.00135913 0
-0.0177018 0.00400223 0
-0.0251434 0.00764604 0
-0.0312022 0.0119305 0
-0.0358885 0.0165355 0
-0.0392703 0.0210494 0
-0.0421366 0.0249889 0
-0.0460828 0.0275017 0
-0.0499245 0.0302459 0
-0.048315 0.0374588 0
-0.0461209 0.0408182 0
-0.0446945 0.0405204 0
-0.0424994 0.0412588 0
-0.0403994 0.0416368 0
-0.0381952 0.0416927 0
-0.0272717 0.00444625 0
-0.0454464 0.0132521 0
-0.0536285 0.0233749 0
-0.0523978 0.0309078 0
-0.0512319 0.0333148 0
-0.0461954 0.0347417 0
-0.0409355 0.0353272 0
-0.0337751 0.00421559 0
-0.0547361 0.0124121 0
-0.0618756 0.021341 0
-0.0556306 0.0275987 0
-0.0530298 0.02978 0
-0.0469995 0.0306335 0
-0.0412327 0.0311957 0
-0.0397636 0.0037664 0
-0.0631226 0.0110495 0
-0.0690919 0.0187776 0
-0.0582379 0.0241868 0
-0.0545204 0.0259715 0
-0.0477757 0.0266236 0
-0.0415398 0.0269701 0
-0.0450635 0.00326181 0
-0.0705192 0.00958014 0
-0.0753954 0.0163161 0
-0.0604067 0.0208902 0
-0.0556751 0.022313 0
-0.0483625 0.022773 0
-0.0418224 0.0229931 0
-0.0496412 0.00277212 0
-0.0769 0.00814036 0
-0.0807901 0.0138451 0
-0.0618597 0.0177582 0
-0.0566267 0.0188767 0
-0.0486307 0.019121 0
-0.0419655 0.0192864 0
-0.0535328 0.00234125 0
-0.0822736 0.00684736 0
-0.0852245 0.0115113 0
-0.063417 0.0148897 0
-0.0571845 0.0156212 0
-0.0488391 0.0158412 0
-0.0420158 0.0158337 0
-0.0568394 0.00197542 0
-0.0868207 0.00577268 0
-0.0889088 0.00968843 0
-0.0648134 0.012182 0
-0.0574208 0.0126923 0
-0.0488982 0.0127509 0
-0.0418542 0.0127463 0
-0.0596347 0.00161405 0
-0.0907087 0.00470946 0
-0.0920671 0.00784939 0
-0.0645358 0.00962286 0
-0.0577015 0.0100149 0
-0.0488483 0.00984709 0
-0.0416744 0.00969528 0
-0.0618606 0.00121567 0
-0.0937922 0.00351345 0
-0.0944873 0.00566842 0
-0.0642488 0.00729078 0
-0.0578191 0.00735185 0
-0.0488111 0.00713879 0
-0.0414995 0.00691161 0
-0.0634586 0.000826247 0
-0.0959519 0.00238117 0
-0.0961444 0.00377058 0
-0.0654825 0.00500181 0
-0.0576447 0.00477162 0
-0.0486432 0.00472556 0
-0.0412134 0.00441115 0
-0.064496 0.00047584 0
-0.0973654 0.00138981 0
-0.0973663 0.0022728 0
-0.0656655 0.00288288 0
-0.0573501 0.00258449 0
-0.048223 0.00225928 0
-0.0409251 0.00186786 0
-0.0146577 0.00150183 0
-0.0127784 0.00150052 0
-0.0239685 0.00443536 0
-0.0376179 0.00850218 0
-0.0333382 0.00847031 0
-0.04056 0.0132622 0
-0.0507211 0.0183736 0
-0.045734 0.0184623 0
-0.0488803 0.0237366 0
-0.0541088 0.0276272 0
-0.0505167 0.0286066 0
-0.0507745 0.0325599 0
-0.0519647 0.0324889 0
-0.0506348 0.034949 0
-0.0498572 0.0359404 0
-0.048818 0.0343122 0
-0.0481822 0.0361458 0
-0.0456847 0.0366989 0
-0.0435687 0.0351325 0
-0.0432713 0.0372793 0
-0.0408081 0.0375823 0
-0.0382418 0.035557 0
-0.0381895 0.0376992 0
-0.0183722 0.00142108 0
-0.0165362 0.00147766 0
-0.0305641 0.00437977 0
-0.0459489 0.00801598 0
-0.0418503 0.00833105 0
-0.0501784 0.0129364 0
-0.0600034 0.0169992 0
-0.0554884 0.0177785 0
-0.0578927 0.022406 0
-0.0603484 0.0248977 0
-0.0573479 0.0263096 0
-0.0541295 0.0292463 0
-0.0541188 0.0290571 0
-0.0531002 0.0309514 0
-0.0521242 0.0319163 0
-0.0500155 0.0303323 0
-0.0494707 0.0324613 0
-0.0465526 0.0328008 0
-0.0441698 0.0309825 0
-0.0438605 0.0330948 0
-0.0410785 0.0333357 0
-0.0383802 0.0312448 0
-0.0383071 0.0334926 0
-0.0218088 0.001265 0
-0.020135 0.00134412 0
-0.0368455 0.00399741 0
-0.053578 0.00714902 0
-0.0498678 0.00759389 0
-0.0590484 0.0117417 0
-0.0682591 0.0150512 0
-0.0642593 0.016027 0
-0.0656109 0.0200203 0
-0.0657199 0.0218045 0
-0.0631164 0.0233394 0
-0.056991 0.0258531 0
-0.0557412 0.0254262 0
-0.0550069 0.0272474 0
-0.0537687 0.0279855 0
-0.0510793 0.0264077 0
-0.0505904 0.0284362 0
-0.04743 0.0287174 0
-0.0446843 0.0268044 0
-0.0444544 0.0289549 0
-0.0413789 0.0291206 0
-0.0386048 0.0271914 0
-0.0384661 0.0292487 0
-0.0248528 0.00109129 0
-0.0233823 0.00117353 0
-0.0425005 0.00350399 0
-0.0603289 0.00619515 0
-0.057068 0.0066628 0
-0.0669501 0.0102951 0
-0.0755178 0.0130593 0
-0.0720102 0.0140295 0
-0.072353 0.0174863 0
-0.0702358 0.0189607 0
-0.0680802 0.0203146 0
-0.0594811 0.0224376 0
-0.0570202 0.0219155 0
-0.0564087 0.0236712 0
-0.0550864 0.0241934 0
-0.0519067 0.0226228 0
-0.0515354 0.0245067 0
-0.0480972 0.0246998 0
-0.0450748 0.0228979 0
-0.0448945 0.0248607 0