<?xml version="1.0"?>
<VTKFile type="UnstructuredGrid">
  <UnstructuredGrid>
  <Piece NumberOfPoints="5412"  NumberOfCells="2638">
    <Points>
      <DataArray type="Float64" NumberOfComponents="3" format="ascii">
8.5 7.5 0.1
9 8 0.1
8.5 8.5 0.1
8 8 0.1
8.5 6 0.1
10.5 8 0.1
8.5 10 0.1
6.5 8 0.1
8.5 5 0.1
11.5 8 0.1
8.5 11 0.1
5.5 8 0.1
8.53923 7.50154 0.1
8.57822 7.50616 0.1
8.61672 7.51382 0.1
8.65451 7.52447 0.1
8.69134 7.53806 0.1
8.727 7.5545 0.1
8.76125 7.57368 0.1
8.79389 7.59549 0.1
8.82472 7.6198 0.1
8.85355 7.64645 0.1
8.8802 7.67528 0.1
8.90451 7.70611 0.1
8.92632 7.73875 0.1
8.9455 7.773 0.1
8.96194 7.80866 0.1
8.97553 7.84549 0.1
8.98618 7.88328 0.1
8.99384 7.92178 0.1
8.99846 7.96077 0.1
8.51963 7.50039 0.1
8.55877 7.50347 0.1
8.59755 7.50961 0.1
8.63572 7.51877 0.1
8.67306 7.5309 0.1
8.70933 7.54593 0.1
8.74431 7.56375 0.1
8.77779 7.58427 0.1
8.80955 7.60734 0.1
8.8394 7.63284 0.1
8.86716 7.6606 0.1
8.89266 7.69045 0.1
8.91573 7.72221 0.1
8.93625 7.75569 0.1
8.95407 7.79067 0.1
8.9691 7.82694 0.1
8.98123 7.86428 0.1
8.99039 7.90245 0.1
8.99653 7.94123 0.1
8.99961 7.98037 0.1
8.99846 8.03923 0.1
8.99384 8.07822 0.1
8.98618 8.11672 0.1
8.97553 8.15451 0.1
8.96194 8.19134 0.1
8.9455 8.227 0.1
8.92632 8.26125 0.1
8.90451 8.29389 0.1
8.8802 8.32472 0.1
8.85355 8.35355 0.1
8.82472 8.3802 0.1
8.79389 8.40451 0.1
8.76125 8.42632 0.1
8.727 8.4455 0.1
8.69134 8.46194 0.1
8.65451 8.47553 0.1
8.61672 8.48618 0.1
8.57822 8.49384 0.1
8.53923 8.49846 0.1
8.99961 8.01963 0.1
8.99653 8.05877 0.1
8.99039 8.09755 0.1
8.98123 8.13572 0.1
8.9691 8.17306 0.1
8.95407 8.20933 0.1
8.93625 8.24431 0.1
8.91573 8.27779 0.1
8.89266 8.30955 0.1
8.86716 8.3394 0.1
8.8394 8.36716 0.1
8.80955 8.39266 0.1
8.77779 8.41573 0.1
8.74431 8.43625 0.1
8.70933 8.45407 0.1
8.67306 8.4691 0.1
8.63572 8.48123 0.1
8.59755 8.49039 0.1
8.55877 8.49653 0.1
8.51963 8.49961 0.1
8.46077 8.49846 0.1
8.42178 8.49384 0.1
8.38328 8.48618 0.1
8.34549 8.47553 0.1
8.30866 8.46194 0.1
8.273 8.4455 0.1
8.23875 8.42632 0.1
8.20611 8.40451 0.1
8.17528 8.3802 0.1
8.14645 8.35355 0.1
8.1198 8.32472 0.1
8.09549 8.29389 0.1
8.07368 8.26125 0.1
8.0545 8.227 0.1
8.03806 8.19134 0.1
8.02447 8.15451 0.1
8.01382 8.11672 0.1
8.00616 8.07822 0.1
8.00154 8.03923 0.1
8.48037 8.49961 0.1
8.44123 8.49653 0.1
8.40245 8.49039 0.1
8.36428 8.48123 0.1
8.32694 8.4691 0.1
8.29067 8.45407 0.1
8.25569 8.43625 0.1
8.22221 8.41573 0.1
8.19045 8.39266 0.1
8.1606 8.36716 0.1
8.13284 8.3394 0.1
8.10734 8.30955 0.1
8.08427 8.27779 0.1
8.06375 8.24431 0.1
8.04593 8.20933 0.1
8.0309 8.17306 0.1
8.01877 8.13572 0.1
8.00961 8.09755 0.1
8.00347 8.05877 0.1
8.00039 8.01963 0.1
8.00154 7.96077 0.1
8.00616 7.92178 0.1
8.01382 7.88328 0.1
8.02447 7.84549 0.1
8.03806 7.80866 0.1
8.0545 7.773 0.1
8.07368 7.73875 0.1
8.09549 7.70611 0.1
8.1198 7.67528 0.1
8.14645 7.64645 0.1
8.17528 7.6198 0.1
8.20611 7.59549 0.1
8.23875 7.57368 0.1
8.273 7.5545 0.1
8.30866 7.53806 0.1
8.34549 7.52447 0.1
8.38328 7.51382 0.1
8.42178 7.50616 0.1
8.46077 7.50154 0.1
8.00039 7.98037 0.1
8.00347 7.94123 0.1
8.00961 7.90245 0.1
8.01877 7.86428 0.1
8.0309 7.82694 0.1
8.04593 7.79067 0.1
8.06375 7.75569 0.1
8.08427 7.72221 0.1
8.10734 7.69045 0.1
8.13284 7.6606 0.1
8.1606 7.63284 0.1
8.19045 7.60734 0.1
8.22221 7.58427 0.1
8.25569 7.56375 0.1
8.29067 7.54593 0.1
8.32694 7.5309 0.1
8.36428 7.51877 0.1
8.40245 7.50961 0.1
8.44123 7.50347 0.1
8.48037 7.50039 0.1
8.72393 6.01258 0.1
8.94504 6.05014 0.1
9.16056 6.11223 0.1
9.36777 6.19806 0.1
9.56406 6.30655 0.1
9.74698 6.43634 0.1
9.91421 6.58579 0.1
10.0637 6.75302 0.1
10.1934 6.93594 0.1
10.3019 7.13223 0.1
10.3878 7.33944 0.1
10.4499 7.55496 0.1
10.4874 7.77607 0.1
8.61214 6.00315 0.1
8.83501 6.02826 0.1
9.05367 6.07817 0.1
9.26537 6.15224 0.1
9.46744 6.24955 0.1
9.65734 6.36888 0.1
9.83269 6.50872 0.1
9.99128 6.66731 0.1
10.1311 6.84266 0.1
10.2504 7.03256 0.1
10.3478 7.23463 0.1
10.4218 7.44633 0.1
10.4717 7.66499 0.1
10.4969 7.88786 0.1
10.4874 8.22393 0.1
10.4499 8.44504 0.1
10.3878 8.66056 0.1
10.3019 8.86777 0.1
10.1934 9.06406 0.1
10.0637 9.24698 0.1
9.91421 9.41421 0.1
9.74698 9.56366 0.1
9.56406 9.69345 0.1
9.36777 9.80194 0.1
9.16056 9.88777 0.1
8.94504 9.94986 0.1
8.72393 9.98742 0.1
10.4969 8.11214 0.1
10.4717 8.33501 0.1
10.4218 8.55367 0.1
10.3478 8.76537 0.1
10.2504 8.96744 0.1
10.1311 9.15734 0.1
9.99128 9.33269 0.1
9.83269 9.49128 0.1
9.65734 9.63112 0.1
9.46744 9.75045 0.1
9.26537 9.84776 0.1
9.05367 9.92183 0.1
8.83501 9.97174 0.1
8.61214 9.99685 0.1
8.27607 9.98742 0.1
8.05496 9.94986 0.1
7.83944 9.88777 0.1
7.63223 9.80194 0.1
7.43594 9.69345 0.1
7.25302 9.56366 0.1
7.08579 9.41421 0.1
6.93634 9.24698 0.1
6.80655 9.06406 0.1
6.69806 8.86777 0.1
6.61223 8.66056 0.1
6.55014 8.44504 0.1
6.51258 8.22393 0.1
8.38786 9.99685 0.1
8.16499 9.97174 0.1
7.94633 9.92183 0.1
7.73463 9.84776 0.1
7.53256 9.75045 0.1
7.34266 9.63112 0.1
7.16731 9.49128 0.1
7.00872 9.33269 0.1
6.86888 9.15734 0.1
6.74955 8.96744 0.1
6.65224 8.76537 0.1
6.57817 8.55367 0.1
6.52826 8.33501 0.1
6.50315 8.11214 0.1
6.51258 7.77607 0.1
6.55014 7.55496 0.1
6.61223 7.33944 0.1
6.69806 7.13223 0.1
6.80655 6.93594 0.1
6.93634 6.75302 0.1
7.08579 6.58579 0.1
7.25302 6.43634 0.1
7.43594 6.30655 0.1
7.63223 6.19806 0.1
7.83944 6.11223 0.1
8.05496 6.05014 0.1
8.27607 6.01258 0.1
6.50315 7.88786 0.1
6.52826 7.66499 0.1
6.57817 7.44633 0.1
6.65224 7.23463 0.1
6.74955 7.03256 0.1
6.86888 6.84266 0.1
7.00872 6.66731 0.1
7.16731 6.50872 0.1
7.34266 6.36888 0.1
7.53256 6.24955 0.1
7.73463 6.15224 0.1
7.94633 6.07817 0.1
8.16499 6.02826 0.1
8.38786 6.00315 0.1
8.83589 5.01886 0.1
9.16756 5.07522 0.1
9.49084 5.16835 0.1
9.80165 5.29709 0.1
10.0961 5.45983 0.1
10.3705 5.65451 0.1
10.6213 5.87868 0.1
10.8455 6.12953 0.1
11.0402 6.4039 0.1
11.2029 6.69835 0.1
11.3316 7.00916 0.1
11.4248 7.33244 0.1
11.4811 7.66411 0.1
8.66821 5.00472 0.1
9.00252 5.04239 0.1
9.33051 5.11725 0.1
9.64805 5.22836 0.1
9.95116 5.37433 0.1
10.236 5.55332 0.1
10.499 5.76307 0.1
10.7369 6.00096 0.1
10.9467 6.26399 0.1
11.1257 6.54884 0.1
11.2716 6.85195 0.1
11.3828 7.16949 0.1
11.4576 7.49748 0.1
11.4953 7.83179 0.1
11.4811 8.33589 0.1
11.4248 8.66756 0.1
11.3316 8.99084 0.1
11.2029 9.30165 0.1
11.0402 9.5961 0.1
10.8455 9.87047 0.1
10.6213 10.1213 0.1
10.3705 10.3455 0.1
10.0961 10.5402 0.1
9.80165 10.7029 0.1
9.49084 10.8316 0.1
9.16756 10.9248 0.1
8.83589 10.9811 0.1
11.4953 8.16821 0.1
11.4576 8.50252 0.1
11.3828 8.83051 0.1
11.2716 9.14805 0.1
11.1257 9.45116 0.1
10.9467 9.73601 0.1
10.7369 9.99904 0.1
10.499 10.2369 0.1
10.236 10.4467 0.1
9.95116 10.6257 0.1
9.64805 10.7716 0.1
9.33051 10.8828 0.1
9.00252 10.9576 0.1
8.66821 10.9953 0.1
8.16411 10.9811 0.1
7.83244 10.9248 0.1
7.50916 10.8316 0.1
7.19835 10.7029 0.1
6.9039 10.5402 0.1
6.62953 10.3455 0.1
6.37868 10.1213 0.1
6.15451 9.87047 0.1
5.95983 9.5961 0.1
5.79709 9.30165 0.1
5.66835 8.99084 0.1
5.57522 8.66756 0.1
5.51886 8.33589 0.1
8.33179 10.9953 0.1
7.99748 10.9576 0.1
7.66949 10.8828 0.1
7.35195 10.7716 0.1
7.04884 10.6257 0.1
6.76399 10.4467 0.1
6.50096 10.2369 0.1
6.26307 9.99904 0.1
6.05332 9.73601 0.1
5.87433 9.45116 0.1
5.72836 9.14805 0.1
5.61725 8.83051 0.1
5.54239 8.50252 0.1
5.50472 8.16821 0.1
5.51886 7.66411 0.1
5.57522 7.33244 0.1
5.66835 7.00916 0.1
5.79709 6.69835 0.1
5.95983 6.4039 0.1
6.15451 6.12953 0.1
6.37868 5.87868 0.1
6.62953 5.65451 0.1
6.9039 5.45983 0.1
7.19835 5.29709 0.1
7.50916 5.16835 0.1
7.83244 5.07522 0.1
8.16411 5.01886 0.1
5.50472 7.83179 0.1
5.54239 7.49748 0.1
5.61725 7.16949 0.1
5.72836 6.85195 0.1
5.87433 6.54884 0.1
6.05332 6.26399 0.1
6.26307 6.00096 0.1
6.50096 5.76307 0.1
6.76399 5.55332 0.1
7.04884 5.37433 0.1
7.35195 5.22836 0.1
7.66949 5.11725 0.1
7.99748 5.04239 0.1
8.33179 5.00472 0.1
8.5 6.1 0.1
8.5 6.2 0.1
8.5 6.3 0.1
8.5 6.4 0.1
8.5 6.5 0.1
8.5 6.6 0.1
8.5 6.7 0.1
8.5 6.8 0.1
8.5 6.9 0.1
8.5 7 0.1
8.5 7.1 0.1
8.5 7.2 0.1
8.5 7.3 0.1
8.5 7.4 0.1
8.5 6.05 0.1
8.5 6.15 0.1
8.5 6.25 0.1
8.5 6.35 0.1
8.5 6.45 0.1
8.5 6.55 0.1
8.5 6.65 0.1
8.5 6.75 0.1
8.5 6.85 0.1
8.5 6.95 0.1
8.5 7.05 0.1
8.5 7.15 0.1
8.5 7.25 0.1
8.5 7.35 0.1
8.5 7.45 0.1
9.1 8 0.1
9.2 8 0.1
9.3 8 0.1
9.4 8 0.1
9.5 8 0.1
9.6 8 0.1
9.7 8 0.1
9.8 8 0.1
9.9 8 0.1
10 8 0.1
10.1 8 0.1
10.2 8 0.1
10.3 8 0.1
10.4 8 0.1
9.05 8 0.1
9.15 8 0.1
9.25 8 0.1
9.35 8 0.1
9.45 8 0.1
9.55 8 0.1
9.65 8 0.1
9.75 8 0.1
9.85 8 0.1
9.95 8 0.1
10.05 8 0.1
10.15 8 0.1
10.25 8 0.1
10.35 8 0.1
10.45 8 0.1
8.5 8.6 0.1
8.5 8.7 0.1
8.5 8.8 0.1
8.5 8.9 0.1
8.5 9 0.1
8.5 9.1 0.1
8.5 9.2 0.1
8.5 9.3 0.1
8.5 9.4 0.1
8.5 9.5 0.1
8.5 9.6 0.1
8.5 9.7 0.1
8.5 9.8 0.1
8.5 9.9 0.1
8.5 8.55 0.1
8.5 8.65 0.1
8.5 8.75 0.1
8.5 8.85 0.1
8.5 8.95 0.1
8.5 9.05 0.1
8.5 9.15 0.1
8.5 9.25 0.1
8.5 9.35 0.1
8.5 9.45 0.1
8.5 9.55 0.1
8.5 9.65 0.1
8.5 9.75 0.1
8.5 9.85 0.1
8.5 9.95 0.1
6.6 8 0.1
6.7 8 0.1
6.8 8 0.1
6.9 8 0.1
7 8 0.1
7.1 8 0.1
7.2 8 0.1
7.3 8 0.1
7.4 8 0.1
7.5 8 0.1
7.6 8 0.1
7.7 8 0.1
7.8 8 0.1
7.9 8 0.1
6.55 8 0.1
6.65 8 0.1
6.75 8 0.1
6.85 8 0.1
6.95 8 0.1
7.05 8 0.1
7.15 8 0.1
7.25 8 0.1
7.35 8 0.1
7.45 8 0.1
7.55 8 0.1
7.65 8 0.1
7.75 8 0.1
7.85 8 0.1
7.95 8 0.1
8.5 5.33333 0.1
8.5 5.66667 0.1
8.5 5.16667 0.1
8.5 5.5 0.1
8.5 5.83333 0.1
10.8333 8 0.1
11.1667 8 0.1
10.6667 8 0.1
11 8 0.1
11.3333 8 0.1
8.5 10.3333 0.1
8.5 10.6667 0.1
8.5 10.1667 0.1
8.5 10.5 0.1
8.5 10.8333 0.1
5.83333 8 0.1
6.16667 8 0.1
5.66667 8 0.1
6 8 0.1
6.33333 8 0.1
9.42912 7.36778 0.1
8.98107 7.14335 0.1
9.12034 7.43554 0.1
9.01433 6.66213 0.1
9.17936 7.68419 0.1
9.85922 7.57796 0.1
8.76256 7.28829 0.1
9.38426 6.90812 0.1
8.92185 7.46489 0.1
9.02088 7.58931 0.1
9.52889 7.66584 0.1
8.77428 6.9572 0.1
9.79217 7.11621 0.1
9.14334 7.82286 0.1
9.23019 7.21456 0.1
8.76547 7.42416 0.1
8.78426 6.45 0.1
10.05 7.73427 0.1
9.02751 7.71032 0.1
9.75 7.78105 0.1
8.64858 7.43517 0.1
9.37911 7.79108 0.1
9.35145 7.59348 0.1
8.67575 6.75137 0.1
8.82688 7.51565 0.1
8.89755 7.56932 0.1
9.00894 6.90235 0.1
9.31754 6.58936 0.1
8.99619 7.31062 0.1
8.67317 7.1143 0.1
8.70809 6.25 0.1
10.2334 7.80568 0.1
9.45268 7.13775 0.1
[...]
    <PointData>
      <DataArray type="Float64" NumberOfComponents="3" Name="Velocity" format="ascii">
0 0 0
0 0 0
0 0 0
0 0 0
1.0484 0.00130812 0
0.932978 -2.69808e-05 0
1.04817 -0.00107421 0
0.935262 -1.23575e-05 0
1.03399 -0.0013022 0
0.97147 -2.68343e-05 0
1.03392 0.00118836 0
0.974633 -1.11204e-05 0
0 0 0
0 0 0
0 0 0
0 0 0
0 0 0
0 0 0
0 0 0
0 0 0
0 0 0
0 0 0
0 0 0
0 0 0
0 0 0
0 0 0
0 0 0
0 0 0
0 0 0
0 0 0
0 0 0
0 0 0
0 0 0
0 0 0
0 0 0
0 0 0
0 0 0
0 0 0
0 0 0
0 0 0
0 0 0
0 0 0
0 0 0
0 0 0
0 0 0
0 0 0
0 0 0
0 0 0
0 0 0
0 0 0
0 0 0
0 0 0
0 0 0
0 0 0
0 0 0
0 0 0
0 0 0
0 0 0
0 0 0
0 0 0
0 0 0
0 0 0
0 0 0
0 0 0
0 0 0
0 0 0
0 0 0
0 0 0
0 0 0
0 0 0
0 0 0
0 0 0
0 0 0
0 0 0
0 0 0
0 0 0
0 0 0
0 0 0
0 0 0
0 0 0
0 0 0
0 0 0
0 0 0
0 0 0
0 0 0
0 0 0
0 0 0
0 0 0
0 0 0
0 0 0
0 0 0
0 0 0
0 0 0
0 0 0
0 0 0
0 0 0
0 0 0
0 0 0
0 0 0
0 0 0
0 0 0
0 0 0
0 0 0
0 0 0
0 0 0
0 0 0
0 0 0
0 0 0
0 0 0
0 0 0
0 0 0
0 0 0
0 0 0
0 0 0
0 0 0
0 0 0
0 0 0
0 0 0
0 0 0
0 0 0
0 0 0
0 0 0
0 0 0
0 0 0
0 0 0
0 0 0
0 0 0
0 0 0
0 0 0
0 0 0
0 0 0
0 0 0
0 0 0
0 0 0
0 0 0
0 0 0
0 0 0
0 0 0
0 0 0
0 0 0
0 0 0
0 0 0
0 0 0
0 0 0
0 0 0
0 0 0
0 0 0
0 0 0
0 0 0
0 0 0
0 0 0
0 0 0
0 0 0
0 0 0
0 0 0
0 0 0
0 0 0
0 0 0
0 0 0
0 0 0
0 0 0
0 0 0
0 0 0
0 0 0
0 0 0
0 0 0
0 0 0
0 0 0
1.05004 0.0143522 0
1.05459 0.0260866 0
1.05426 0.0383111 0
1.04745 0.052011 0
1.03613 0.0618097 0
1.02277 0.0686036 0
1.00735 0.0711317 0
0.993115 0.0682873 0
0.977623 0.0646567 0
0.963148 0.0572949 0
0.950165 0.0463485 0
0.93988 0.0324541 0
0.934577 0.0162326 0
1.05035 0.00529186 0
1.053 0.017688 0
1.05501 0.0318764 0
1.05221 0.0452046 0
1.04257 0.0565233 0
1.02955 0.0656159 0
1.01604 0.0708412 0
0.998718 0.0719276 0
0.983688 0.068366 0
0.968776 0.0621578 0
0.954809 0.0525876 0
0.944013 0.0396993 0
0.936286 0.0246725 0
0.932399 0.00855831 0
0.934469 -0.0163475 0
0.939752 -0.0324413 0
0.94979 -0.0462499 0
0.963416 -0.0569719 0
0.978468 -0.0646709 0
0.9925 -0.068601 0
1.00816 -0.0722607 0
1.02309 -0.0686008 0
1.03749 -0.0623857 0
1.04985 -0.0513182 0
1.05477 -0.0391438 0
1.05494 -0.0270385 0
1.04757 -0.0136028 0
0.932434 -0.00859442 0
0.936383 -0.0248094 0
0.944165 -0.0398 0
0.954909 -0.0525381 0
0.968265 -0.0620609 0
0.983371 -0.0683023 0
1.00028 -0.0721031 0
1.01668 -0.0714188 0
1.03093 -0.0669769 0
1.0449 -0.0582159 0
1.05453 -0.0457934 0
1.05582 -0.031782 0
1.05239 -0.0177986 0
1.04915 -0.00523957 0
1.04873 0.01293 0
1.04798 0.0259885 0
1.04421 0.037833 0
1.03695 0.0486393 0
1.02511 0.0573401 0
1.01097 0.0621041 0
0.996185 0.0635856 0
0.98306 0.0616504 0
0.971568 0.056538 0
0.961055 0.0486954 0
0.951414 0.0385195 0
0.94269 0.0265852 0
0.93728 0.0136602 0
1.04816 0.00735413 0
1.04863 0.0197832 0
1.04641 0.0323781 0
1.04086 0.0435975 0
1.03172 0.0530966 0
1.01833 0.0598826 0
1.00373 0.0634139 0
0.989903 0.0629492 0
0.977503 0.0593981 0
0.965936 0.0529892 0
0.955819 0.0439374 0
0.94695 0.0328147 0
0.939685 0.0202418 0
0.935903 0.00694459 0
0.937271 -0.0136862 0
0.942722 -0.0265996 0
0.951404 -0.0385421 0
0.960993 -0.0487424 0
0.971334 -0.0565196 0
0.983153 -0.0617888 0
0.996001 -0.0636295 0
1.01128 -0.062135 0
1.02548 -0.0573851 0
1.0364 -0.0486217 0
1.04427 -0.0378634 0
1.04806 -0.0259205 0
1.04852 -0.0128198 0
0.935899 -0.0069773 0
0.939716 -0.0202783 0
0.946978 -0.0328152 0
0.955901 -0.0438829 0
0.966055 -0.0529703 0
0.977579 -0.0593894 0
0.989994 -0.0629283 0
1.00376 -0.0633482 0
1.0185 -0.0601312 0
1.03184 -0.0531336 0
1.04096 -0.0434034 0
1.0464 -0.0323639 0
1.04856 -0.0196373 0
1.0484 -0.00724181 0
1.03406 0.00508034 0
1.03183 0.0119302 0
1.02847 0.0183419 0
1.0235 0.0235701 0
1.01755 0.0273852 0
1.01053 0.0301902 0
1.00379 0.0311144 0
0.997681 0.0305395 0
0.990312 0.0282609 0
0.983456 0.0245223 0
0.978494 0.0192315 0
0.974799 0.0128531 0
0.972296 0.00643174 0
1.03411 0.00199648 0
1.03326 0.00834726 0
1.03051 0.0152825 0
1.02656 0.021128 0
1.02102 0.0254988 0
1.01454 0.0287842 0
1.00748 0.0308017 0
1.00095 0.0309002 0
0.994143 0.0294033 0
0.986749 0.0266246 0
0.980872 0.0220451 0
0.976563 0.0161214 0
0.973523 0.00967619 0
0.971739 0.00326258 0
0.972297 -0.00646505 0
0.974797 -0.0128792 0
0.978516 -0.0192259 0
0.983581 -0.0246242 0
0.990403 -0.0281818 0
0.997757 -0.0303945 0
1.00403 -0.031065 0
1.01092 -0.030112 0
1.01795 -0.0272964 0
1.02376 -0.0235839 0
1.02836 -0.0182575 0
1.03168 -0.0120025 0
1.03352 -0.00510011 0
0.971735 -0.00328768 0
0.973515 -0.00968878 0
0.976539 -0.016126 0
0.980901 -0.0220458 0
0.986711 -0.0266134 0
0.994109 -0.0294552 0
1.00086 -0.0308672 0
1.00733 -0.0307891 0
1.01452 -0.0288834 0
1.02104 -0.0256121 0
1.02633 -0.0211283 0
1.03069 -0.0152519 0
1.03302 -0.0084604 0
1.0341 -0.00170561 0
1.03256 0.00720454 0
1.02971 0.0134599 0
1.02596 0.0191205 0
1.02126 0.0238279 0
1.01533 0.0270625 0
1.0086 0.0289692 0
1.00255 0.0292037 0
0.996754 0.0281178 0
0.990317 0.0266811 0
0.984324 0.0245989 0
0.979522 0.0198903 0
0.976369 0.0131028 0
0.97506 0.00628541 0
1.03354 0.00428626 0
1.03129 0.0102175 0
1.02811 0.0163801 0
1.02391 0.0216476 0
1.01856 0.0255711 0
1.01219 0.0281489 0
1.00565 0.0293023 0
0.999922 0.0287394 0
0.993682 0.0272595 0
0.98741 0.0258139 0
0.981908 0.0225351 0
0.977743 0.016586 0
0.975542 0.00971112 0
0.974766 0.00313522 0
0.975035 -0.00629124 0
0.976313 -0.0131552 0
0.979497 -0.019867 0
0.984385 -0.0246744 0
0.990308 -0.0267805 0
0.996738 -0.0281469 0
1.00256 -0.0290798 0
1.00873 -0.0289502 0
1.0154 -0.0269838 0
1.02121 -0.0237527 0
1.02613 -0.0192147 0
1.02976 -0.0134575 0
1.0327 -0.00733177 0
0.974762 -0.00315455 0
0.97558 -0.00978072 0
0.977808 -0.0166119 0
0.982022 -0.0224702 0
0.987464 -0.0258259 0
0.993742 -0.0272975 0
0.999861 -0.0286789 0
1.00565 -0.0293573 0
1.01214 -0.0281755 0
1.01857 -0.0255632 0
1.02392 -0.021545 0
1.02811 -0.0163991 0
1.03148 -0.0102208 0
1.03363 -0.00417179 0
1.08061 -0.00285904 0
1.09879 -0.00563348 0
1.10705 -0.00584627 0
1.12036 -0.00710203 0
1.1353 -0.00836734 0
1.15416 -0.0100559 0
1.17682 -0.0123695 0
1.20533 -0.015453 0
1.24167 -0.0198091 0
1.28903 -0.0259181 0
1.35145 -0.0352974 0
1.43612 -0.0490785 0
1.55834 -0.0717237 0
1.6991 -0.0940291 0
1.06479 -0.00045636 0
1.09293 -0.00457451 0
1.10239 -0.00577859 0
1.11322 -0.0064128 0
1.12775 -0.00774036 0
1.1441 -0.00913807 0
1.16484 -0.011137 0
1.19008 -0.0137819 0
1.22225 -0.017461 0
1.26346 -0.0225666 0
1.31726 -0.0300083 0
1.39072 -0.0412465 0
1.49187 -0.0580248 0
1.63242 -0.0896089 0
1.64347 -0.136904 0
-0.00548337 -0.00586223 0
0.279326 0.00343988 0
0.481392 5.09174e-05 0
0.603489 0.000183901 0
0.686033 2.39205e-05 0
0.744107 -3.01013e-05 0
0.788945 8.57128e-05 0
0.822635 6.48948e-05 0
0.849402 -2.1773e-05 0
0.87042 -2.1258e-05 0
0.88787 -3.37071e-05 0
0.902111 -3.59338e-05 0
0.913852 -3.36171e-05 0
0.924004 -3.11094e-05 0
-0.0826988 -0.00651209 0
0.132598 0.00862936 0
0.395077 0.00173273 0
0.548176 0.000745087 0
0.647932 0.000117543 0
0.717234 7.42741e-05 0
0.767928 4.16975e-05 0
0.806814 -1.4633e-05 0
0.836769 -5.01668e-05 0
0.860486 -2.21197e-05 0
0.879562 -3.58896e-05 0
0.895293 -2.69889e-05 0
0.908236 -3.43673e-05 0
0.919143 -3.06765e-05 0
0.928592 -1.82946e-05 0
1.72104 0.100763 0
1.56477 0.0729414 0
1.43512 0.0487503 0
1.35091 0.0347731 0
1.28898 0.0261528 0
1.24143 0.0199076 0
1.20529 0.0154768 0
1.17687 0.0125054 0
1.15417 0.0102254 0
1.13521 0.00846153 0
1.12029 0.00720609 0
1.10694 0.00576706 0
1.09877 0.00553135 0
1.08048 0.00268167 0
1.63793 0.14251 0
1.62468 0.0802301 0
1.4916 0.0567237 0
1.39079 0.0411215 0
1.31659 0.0300803 0
1.2632 0.0226812 0
1.22206 0.017574 0
1.18979 0.0139312 0
1.16465 0.0112668 0
1.14402 0.00928392 0
1.12769 0.00782431 0
1.11322 0.00639425 0
1.10208 0.00563511 0
1.09277 0.00458593 0
1.0647 0.000485566 0
0.928669 -2.13393e-05 0
0.921199 -2.73522e-05 0
0.912457 -2.15184e-05 0
0.901259 -2.50387e-05 0
0.886983 -3.20948e-05 0
0.869555 -3.91329e-05 0
0.847487 -4.47287e-05 0
0.820284 -4.81534e-05 0
0.784677 -5.4018e-05 0
0.739134 -6.18106e-05 0
0.676372 -7.08012e-05 0
0.591068 -7.84853e-05 0
0.469553 -4.90013e-05 0
0.270162 7.27424e-05 0
0.932032 -1.72416e-05 0
0.925059 -2.65194e-05 0
0.917049 -2.37841e-05 0
0.907193 -2.07056e-05 0
0.894513 -2.75475e-05 0
0.878764 -3.58163e-05 0
0.859189 -4.23043e-05 0
0.834735 -4.62226e-05 0
0.803669 -5.06969e-05 0
0.763508 -5.74436e-05 0
0.710159 -6.62537e-05 0
0.637163 -7.88209e-05 0
0.536095 -0.000100827 0
0.381705 -0.000130516 0
0.14289 -0.000374786 0
1.04404 -0.00170244 0
1.05871 -0.0023196 0
1.0381 -0.00156552 0
1.05141 -0.00206234 0
1.05395 -0.00224355 0
0.95038 -2.05245e-05 0
0.963842 -2.67173e-05 0
0.941963 -2.06117e-05 0
0.958059 -1.51208e-05 0
0.968076 -7.77477e-06 0
1.0585 0.00264429 0
1.04383 0.00169399 0
1.05414 0.00221178 0
1.05157 0.00200632 0
1.03811 0.00140501 0
0.965951 -1.49472e-05 0
0.95293 -1.37497e-05 0
0.97075 -1.77649e-05 0
0.95992 -2.77973e-05 0
0.944755 -1.58985e-05 0
0.932189 0.235842 0
1.19962 0.245849 0
1.03358 0.463547 0
1.12075 0.088005 0
0.665399 0.465114 0
0.884395 0.0898395 0
1.44102 0.263801 0
1.04988 0.146923 0
1.27932 0.627272 0
0.957796 0.808102 0
0.793277 0.16705 0
1.23667 0.100953 0
0.968708 0.117894 0
0.401954 0.537249 0
1.05204 0.264461 0
1.59907 0.439967 0
1.11994 0.0341931 0
0.891078 0.0431115 0
0.566144 0.688097 0
0.825556 0.0695729 0
1.80245 0.251098 0
0.660584 0.191231 0
0.793584 0.294936 0
1.18554 0.0358911 0
1.29067 0.589544 0
0.967119 0.685752 0
1.15082 0.142402 0
1.06968 0.0931423 0
1.19242 0.382817 0
1.34568 0.0939761 0
1.09962 0.0167834 0
0.910245 0.0229583 0
1.00206 0.185753 0
0.879691 0.163658 0
0.941109 0.08201 0
1.01062 0.108338 0
0.549226 0.568897 0
1.36773 0.418547 0
0.937202 0.330478 0
1.08928 0.0562575 0
0.808309 0.497103 0
0.74129 0.0910424 0
1.1086 0.196792 0
0.946953 0.16755 0
-0.00594756 0.187343 0
0.164745 0.318051 0
0.926852 0.119001 0
1.54496 0.119883 0
1.30211 0.210553 0
1.09206 0.122772 0
0.476904 0.23775 0
1.35812 0.422394 0
1.16907 0.0926665 0
0.927602 0.0510839 0
1.14704 0.022505 0
0.864839 0.0404131 0
1.06978 0.330948 0
1.02517 0.586371 0
1.25665 0.0483803 0
0.862148 0.123143 0
1.21635 0.159978 0
0.745882 0.406716 0
1.12935 0.0137453 0
0.850163 0.202925 0
1.05212 0.195468 0
1.87177 0.0694901 0
1.14419 0.0565941 0
1.03994 0.104845 0
1.26082 0.299355 0
0.775277 0.661051 0
0.999219 0.13305 0
0.0742199 0.0663809 0
0.161446 0.123249 0
0.881017 0.0203238 0
0.693587 0.281671 0
0.744728 0.395921 0
0.559219 0.688886 0
1.189 0.50455 0
1.11628 0.283026 0
0.988828 0.0910648 0
0.66902 0.0841604 0
0.777045 0.0491344 0
0.982235 0.271212 0
0.742129 0.217992 0
0.967789 0.0943457 0
1.42565 0.481258 0
0.0332683 0.013415 0
0.863105 0.0692691 0
1.10136 0.0364237 0
1.01493 0.386618 0
0.265211 0.343226 0
0.937797 0.226651 0
0.905933 0.06567 0
1.22243 0.0175312 0
1.42616 0.0598703 0
1.12636 0.811425 0
1.5499 0.264157 0
-0.0735763 -0.0175028 0
-0.0699203 -0.0628496 0
0.563643 0.398357 0
1.09201 0.00571783 0
0.920581 0.0129085 0
1.3138 0.029736 0
1.09335 0.0771436 0
1.06651 0.0641917 0
0.927996 0.433058 0
0.798156 0.0918237 0
1.08337 0.156669 0
1.04015 0.081817 0
1.16786 0.188646 0
0.014645 -0.0430513 0
0.820238 0.033683 0
1.11827 0.0579237 0
-0.120199 -0.172947 0
1.27783 0.140081 0
0.878552 0.269814 0
1.41791 0.15856 0
1.1672 0.0134659 0
1.01263 0.381499 0
0.896328 0.0131994 0
1.11212 0.00686154 0
0.737989 0.124823 0
0.553931 0.119122 0
0.721353 0.149135 0
0.898028 0.602083 0
1.3784 -0.0311871 0
0.919103 0.0936482 0
1.03579 0.104253 0
0.976677 0.216418 0
0.972971 0.816355 0
-0.0985942 -0.123106 0
1.11711 0.424797 0
0.781122 0.849198 0
1.36825 0.757675 0
1.21044 0.0602607 0
1.18655 0.122835 0
1.45006 0.364523 0
1.02854 0.127842 0
-0.0842312 -0.0366542 0
0.908947 0.010275 0
1.10129 0.00387825 0
1.01956 0.0872966 0
1.61986 0.0853174 0
1.58772 0.575381 0
0.916729 0.185405 0
1.12111 0.115297 0
0.947295 0.10486 0
0.169124 0.0310766 0
0.910638 0.0407255 0
-0.0968485 -0.224149 0
1.07231 0.00429992 0
0.927419 0.00778902 0
0.841713 0.155727 0
1.28684 0.0836868 0
0.861795 0.0172654 0
1.28605 0.494929 0
1.11288 0.0216514 0
1.01303 0.225951 0
1.14592 0.00602079 0
0.943698 0.0629914 0
0.862072 0.347308 0
0.979258 0.155002 0
1.0618 0.123175 0
-0.101371 -0.159095 0
1.17467 0.302598 0
1.01982 0.155505 0
0.898432 0.122457 0
1.01735 0.312182 0
1.73474 0.374937 0
0.924712 0.0302002 0
1.35329 0.30854 0
1.00428 0.0881611 0
0.723539 0.0453533 0
0.897649 0.0283527 0
0.919507 0.148303 0
0.947786 0.135235 0
1.0794 0.0411511 0
0.98722 0.111151 0
0.33249 0.0730992 0
1.08767 0.0225096 0
0.59535 0.258692 0
0.842977 0.0239477 0
0.962226 0.0752242 0
0.4876 0.651556 0
1.36778 0.218884 0
0.92698 0.07113 0
1.49963 0.0212651 0
1.19139 0.00777462 0
0.0197539 0.184366 0
1.28768 0.402561 0
1.11884 0.155634 0
0.809489 0.233265 0
1.09233 0.234438 0
1.05358 0.0725593 0
0.930768 0.276709 0
0.883526 0.0622043 0
1.17262 0.0653746 0
0.949568 0.514122 0
1.15862 0.0390448 0
1.23747 0.207099 0
1.14582 0.0800118 0
1.46683 0.638593 0
0.888786 0.214478 0
0.413186 0.125708 0
1.19606 0.0888913 0
1.08228 0.507782 0
1.13596 0.0387719 0
0.772715 0.124878 0
1.10081 0.0980467 0
1.14177 0.240867 0
0.432572 0.38864 0
0.727136 0.494827 0
0.845258 0.0930846 0
1.4986 0.201321 0
1.37025 0.018299 0
1.16607 0.65841 0
1.33417 0.16085 0
0.995153 0.700638 0
1.26411 0.00972224 0
0.930062 0.0293305 0
0.842995 0.047634 0
1.12704 0.349036 0
0.0977561 -0.0092504 0
1.14762 0.109051 0
0.979039 0.0818518 0
0.714728 0.779259 0
1.18141 0.153522 0
0.927394 0.877867 0
-0.0949041 -0.132459 0
0.820114 0.125892 0
0.948867 0.197541 0
0.643906 0.351082 0
1.25829 0.810642 0
1.07081 0.054879 0
0.183609 0.439812 0
0.970399 0.184326 0
0.281781 0.346642 0
0.976544 0.103232 0
0.967508 0.10496 0
0.97894 0.114894 0
0.0645968 0.30063 0
0.224758 0.432129 0
0.115925 0.318442 0
0.978715 0.0941324 0
0.989158 0.101616 0
0.75944 0.0268008 0
0.780906 0.0236593 0
1.10988 0.0351743 0
1.10986 0.0456233 0
1.11993 0.0458315 0
1.60695 -0.0032189 0
1.66602 0.00903417 0
0.873645 0.467498 0
0.831616 0.425618 0
0.769772 0.4475 0
0.398189 0.612451 0
0.380132 0.602488 0
0.180042 0.394834 0
0.915503 0.694204 0
0.829066 0.634919 0
0.857061 0.750669 0
1.5325 -0.0202631 0
1.57561 0.0450686 0
0.86626 0.181872 0
0.869377 0.20996 0
0.882379 0.187889 0
0.885379 0.0322161 0
0.872968 0.0294561 0
0.878708 0.0422194 0
1.12058 0.0722886 0
1.10648 0.0692532 0
1.10619 0.0828169 0
0.733084 0.0209993 0
0.752209 0.0474957 0
0.800195 0.0403122 0
0.803938 0.0186259 0
1.12555 0.00264387 0
1.13302 0.00305203 0
0.875182 0.0107169 0
0.883759 0.00971764 0
1.07957 0.106439 0
1.09746 0.110326 0
1.08357 0.0968939 0
0.863112 0.0544159 0
0.873723 0.0655419 0
0.873393 0.0520587 0
0.887138 0.0520323 0
1.13766 0.017698 0
1.13331 0.0256362 0
1.14181 0.0310697 0
1.58615 0.196295 0
1.56518 0.103892 0
1.83683 0.16069 0
1.09473 0.174953 0
1.07022 0.176194 0
1.07951 0.198853 0
0.934223 0.042037 0
0.939989 0.0504962 0
1.1045 0.137796 0
1.12191 0.134274 0
1.10635 0.120095 0
1.09249 0.0656878 0
1.10293 0.0577934 0
0.626056 0.444516 0
0.559488 0.538716 0
0.646067 0.58897 0
1.0664 0.107812 0
1.07619 0.124231 0
0.31093 0.536217 0
0.321382 0.445401 0
0.889414 0.141131 0
0.881414 0.123779 0
0.868993 0.143726 0
0.820084 0.0164882 0
1.21449 7.45784e-05 0
1.23296 0.000104475 0
1.5876 0.104495 0
1.52733 0.0649261 0
1.0612 0.295843 0
1.09662 0.307536 0
1.0821 0.276008 0
0.472868 0.619005 0
0.500547 0.474242 0
0.840755 0.285694 0
0.842297 0.254807 0
0.801423 0.261251 0
1.16112 0.000907334 0
1.17272 0.00114174 0
0.814604 0.805547 0
0.879448 0.854652 0
1.15029 -0.0016948 0
1.15617 0.00943296 0
-0.172202 -0.1839 0
-0.165732 -0.208335 0
1.0968 0.0459983 0
0.903531 0.199272 0
0.896997 0.176108 0
0.633509 0.0468511 0
0.672926 0.0399896 0
1.01474 0.514276 0
0.463799 0.196497 0
0.791015 0.338674 0
1.24193 0.0143965 0
1.25297 -0.00585042 0
0.67672 0.236266 0
0.719134 0.248555 0
0.703898 0.207129 0
1.32527 0.253453 0
1.36327 0.262365 0
1.33206 0.215032 0
1.30399 0.306862 0
1.28653 0.254841 0
0.744738 0.292013 0
0.714347 0.338335 0
0.771554 0.342952 0
1.2895 0.550655 0
1.37399 0.643825 0
1.3613 0.558534 0
1.04768 0.537812 0
1.01701 0.516024 0
0.975717 0.546298 0
-0.161002 -0.224641 0
-0.148564 -0.244522 0
1.35141 0.496346 0
1.46161 0.555503 0
0.831278 0.217543 0
0.86073 0.236013 0
0.890211 0.390677 0
0.811709 0.376224 0
1.73166 0.159785 0
1.59399 0.178666 0
1.68656 0.261916 0
1.35009 0.668994 0
1.15673 0.649867 0
1.08904 0.1391 0
1.10044 0.157377 0
0.69487 0.735457 0
0.500104 0.563636 0
0.304221 0.333689 0
0.610016 0.161818 0
0.567468 0.191829 0
0.629532 0.219152 0
0.867162 0.539042 0
1.18651 0.748278 0
0.971041 0.357681 0
1.01185 0.34208 0
0.97697 0.324001 0
1.24864 0.0757297 0
1.23203 0.0554592 0
1.22355 0.0786996 0
0.702004 0.421193 0
0.691961 0.376426 0
0.649972 0.408633 0
1.23154 0.341784 0
1.21548 0.304188 0
1.18167 0.338626 0
0.914043 0.54556 0
0.964892 0.59741 0
0.660597 0.13466 0
0.617007 0.0985171 0
0.763764 0.25754 0
-0.128755 -0.264453 0
-0.115075 -0.28274 0
1.12734 0.0363437 0
1.12515 0.0243713 0
1.05128 0.168965 0
1.06549 0.152879 0
0.997992 0.291397 0
0.960177 0.298986 0
1.02558 0.192826 0
1.03353 0.174448 0
1.01169 0.170003 0
0.972584 0.135269 0
0.990786 0.143951 0
0.983126 0.126825 0
0.873683 0.105059 0
0.889937 0.106364 0
1.13055 0.0579095 0
1.13134 0.0677045 0
1.14571 0.0677617 0
1.26029 0.093896 0
1.27112 0.0647414 0
1.56172 0.185961 0
1.50536 0.397405 0
1.44119 0.41729 0
1.51383 0.475598 0
0.812572 0.0795676 0
0.823265 0.093272 0
0.834934 0.0819625 0
0.762582 0.734085 0
0.704441 0.566423 0
0.700112 0.620558 0
1.22813 0.270456 0
1.25303 0.248583 0
1.22018 0.227184 0
0.852374 0.138702 0
0.861468 0.161134 0
1.26843 0.210042 0
0.69777 0.0616365 0
0.703688 0.0243607 0
1.22954 0.130839 0
1.24608 0.152687 0
1.25596 0.118409 0
1.7499 0.0660164 0
1.84997 -0.0431162 0
0.807839 0.109653 0
0.833097 0.108105 0
0.935191 0.0576435 0
0.947238 0.0552919 0
1.03516 0.152441 0
0.798743 0.199162 0
0.820313 0.188019 0
1.18971 0.273995 0
0.540668 0.251165 0
0.51317 0.168008 0
0.932663 0.0324605 0
0.924591 0.0407213 0
0.771605 0.0922106 0
0.785867 0.0715995 0
0.759259 0.0678376 0
1.0578 0.486551 0
1.00219 0.492195 0
1.20768 0.549134 0
1.16181 0.559828 0
1.22548 0.644851 0
0.731075 0.0688521 0
1.06921 0.214557 0
1.05221 0.226071 0
1.07329 0.250658 0
1.11646 0.0275944 0
1.10713 0.0288776 0
0.669835 0.315059 0
0.845227 0.254639 0
0.699066 0.221683 0
0.202688 0.0384867 0
0.671737 0.7766 0
0.75896 0.821686 0
0.68455 0.786039 0
0.958659 0.126357 0
0.961904 0.146332 0
0.917589 0.0270817 0
0.921815 0.0218136 0
0.915379 0.0176709 0
-0.0996825 -0.263242 0
-0.0801632 -0.245992 0
1.69271 0.42396 0
1.65524 0.324688 0
1.58068 0.34392 0
1.05487 0.088595 0
1.04227 0.0934386 0
1.05482 0.100806 0
1.07868 0.447707 0
1.06083 0.406546 0
1.02436 0.420717 0
0.438857 0.530308 0
0.292161 0.384242 0
0.149085 0.161883 0
1.13553 0.127774 0
1.13491 0.150039 0
0.565085 0.650396 0
0.185263 0.213678 0
0.897845 0.0550578 0
0.907589 0.0525997 0
0.901474 0.0420306 0
0.882976 0.239507 0
0.973745 0.0875466 0
0.971011 0.0785521 0
0.964742 0.0842323 0
0.758865 0.16071 0
0.730007 0.183352 0
0.769694 0.190705 0
0.560127 0.442625 0
0.0803251 0.018548 0
0.538653 0.361075 0
1.1988 0.198886 0
1.18203 0.214266 0
1.03441 0.211568 0
1.0304 0.245249 0
1.02599 0.108114 0
1.03046 0.0972352 0
1.0191 0.0986078 0
1.05632 0.134861 0
1.04504 0.127285 0
1.03811 0.137433 0
0.692398 0.166891 0
0.692966 0.119277 0
1.08835 0.626595 0
1.1134 0.544831 0
0.866095 0.092091 0
0.852315 0.108668 0
1.47872 0.0839179 0
1.42688 0.107846 0
1.47517 0.142577 0
1.20342 0.0282131 0
1.20605 0.0122553 0
1.18929 0.0222277 0
0.588433 0.225677 0
1.16126 0.469984 0
1.26147 0.0296365 0
1.23888 0.0315111 0
1.48041 0.23625 0
0.874054 0.12432 0
0.865832 0.00813032 0
0.871849 0.0189494 0
1.04976 0.11382 0
0.778592 0.559683 0
0.843529 0.545288 0
1.09758 0.0866245 0
1.08281 0.0871008 0
1.10112 0.21511 0
0.743107 0.56842 0
0.693128 0.483809 0
1.1372 0.0102791 0
1.14063 -0.00156174 0
0.651216 0.27336 0
1.13301 0.0848279 0
0.844267 0.178884 0
0.819621 0.162354 0
1.07113 0.138488 0
0.642739 0.738674 0
0.93739 0.111444 0
0.932606 0.100238 0
0.922221 0.105753 0
0.802515 0.0613062 0
1.21803 0.0394403 0
1.19297 0.176593 0