<?xml version="1.0"?>
<VTKFile type="UnstructuredGrid">
  <UnstructuredGrid>
  <Piece NumberOfPoints="3321"  NumberOfCells="1600">
    <Points>
      <DataArray type="Float64" NumberOfComponents="3" format="ascii">
0 0 0.1
1 0 0.1
1 0.5 0.1
0 0.5 0.1
0.025 0 0.1
0.05 0 0.1
0.075 0 0.1
0.1 0 0.1
0.125 0 0.1
0.15 0 0.1
0.175 0 0.1
0.2 0 0.1
0.225 0 0.1
0.25 0 0.1
0.275 0 0.1
0.3 0 0.1
0.325 0 0.1
0.35 0 0.1
0.375 0 0.1
0.4 0 0.1
0.425 0 0.1
0.45 0 0.1
0.475 0 0.1
0.5 0 0.1
0.525 0 0.1
0.55 0 0.1
0.575 0 0.1
0.6 0 0.1
0.625 0 0.1
0.65 0 0.1
0.675 0 0.1
0.7 0 0.1
0.725 0 0.1
0.75 0 0.1
0.775 0 0.1
0.8 0 0.1
0.825 0 0.1
0.85 0 0.1
0.875 0 0.1
0.9 0 0.1
0.925 0 0.1
0.95 0 0.1
0.975 0 0.1
0.0125 0 0.1
0.0375 0 0.1
0.0625 0 0.1
0.0875 0 0.1
0.1125 0 0.1
0.1375 0 0.1
0.1625 0 0.1
0.1875 0 0.1
0.2125 0 0.1
0.2375 0 0.1
0.2625 0 0.1
0.2875 0 0.1
0.3125 0 0.1
0.3375 0 0.1
0.3625 0 0.1
0.3875 0 0.1
0.4125 0 0.1
0.4375 0 0.1
0.4625 0 0.1
0.4875 0 0.1
0.5125 0 0.1
0.5375 0 0.1
0.5625 0 0.1
0.5875 0 0.1
0.6125 0 0.1
0.6375 0 0.1
0.6625 0 0.1
0.6875 0 0.1
0.7125 0 0.1
0.7375 0 0.1
0.7625 0 0.1
0.7875 0 0.1
0.8125 0 0.1
0.8375 0 0.1
0.8625 0 0.1
0.8875 0 0.1
0.9125 0 0.1
0.9375 0 0.1
0.9625 0 0.1
0.9875 0 0.1
1 0.025 0.1
1 0.05 0.1
1 0.075 0.1
1 0.1 0.1
1 0.125 0.1
1 0.15 0.1
1 0.175 0.1
1 0.2 0.1
1 0.225 0.1
1 0.25 0.1
1 0.275 0.1
1 0.3 0.1
1 0.325 0.1
1 0.35 0.1
1 0.375 0.1
1 0.4 0.1
1 0.425 0.1
1 0.45 0.1
1 0.475 0.1
1 0.0125 0.1
1 0.0375 0.1
1 0.0625 0.1
1 0.0875 0.1
1 0.1125 0.1
1 0.1375 0.1
1 0.1625 0.1
1 0.1875 0.1
1 0.2125 0.1
1 0.2375 0.1
1 0.2625 0.1
1 0.2875 0.1
1 0.3125 0.1
1 0.3375 0.1
1 0.3625 0.1
1 0.3875 0.1
1 0.4125 0.1
1 0.4375 0.1
1 0.4625 0.1
1 0.4875 0.1
0.975 0.5 0.1
0.95 0.5 0.1
0.925 0.5 0.1
0.9 0.5 0.1
0.875 0.5 0.1
0.85 0.5 0.1
0.825 0.5 0.1
0.8 0.5 0.1
0.775 0.5 0.1
0.75 0.5 0.1
0.725 0.5 0.1
0.7 0.5 0.1
0.675 0.5 0.1
0.65 0.5 0.1
0.625 0.5 0.1
0.6 0.5 0.1
0.575 0.5 0.1
0.55 0.5 0.1
0.525 0.5 0.1
0.5 0.5 0.1
0.475 0.5 0.1
0.45 0.5 0.1
0.425 0.5 0.1
0.4 0.5 0.1
0.375 0.5 0.1
0.35 0.5 0.1
0.325 0.5 0.1
0.3 0.5 0.1
0.275 0.5 0.1
0.25 0.5 0.1
0.225 0.5 0.1
0.2 0.5 0.1
0.175 0.5 0.1
0.15 0.5 0.1
0.125 0.5 0.1
0.1 0.5 0.1
0.075 0.5 0.1
0.05 0.5 0.1
0.025 0.5 0.1
0.9875 0.5 0.1
0.9625 0.5 0.1
0.9375 0.5 0.1
0.9125 0.5 0.1
0.8875 0.5 0.1
0.8625 0.5 0.1
0.8375 0.5 0.1
0.8125 0.5 0.1
0.7875 0.5 0.1
0.7625 0.5 0.1
0.7375 0.5 0.1
0.7125 0.5 0.1
0.6875 0.5 0.1
0.6625 0.5 0.1
0.6375 0.5 0.1
0.6125 0.5 0.1
0.5875 0.5 0.1
0.5625 0.5 0.1
0.5375 0.5 0.1
0.5125 0.5 0.1
0.4875 0.5 0.1
0.4625 0.5 0.1
0.4375 0.5 0.1
0.4125 0.5 0.1
0.3875 0.5 0.1
0.3625 0.5 0.1
0.3375 0.5 0.1
0.3125 0.5 0.1
0.2875 0.5 0.1
0.2625 0.5 0.1
0.2375 0.5 0.1
0.2125 0.5 0.1
0.1875 0.5 0.1
0.1625 0.5 0.1
0.1375 0.5 0.1
0.1125 0.5 0.1
0.0875 0.5 0.1
0.0625 0.5 0.1
0.0375 0.5 0.1
0.0125 0.5 0.1
0 0.475 0.1
0 0.45 0.1
0 0.425 0.1
0 0.4 0.1
0 0.375 0.1
0 0.35 0.1
0 0.325 0.1
0 0.3 0.1
0 0.275 0.1
0 0.25 0.1
0 0.225 0.1
0 0.2 0.1
0 0.175 0.1
0 0.15 0.1
0 0.125 0.1
0 0.1 0.1
0 0.075 0.1
0 0.05 0.1
0 0.025 0.1
0 0.4875 0.1
0 0.4625 0.1
0 0.4375 0.1
0 0.4125 0.1
0 0.3875 0.1
0 0.3625 0.1
0 0.3375 0.1
0 0.3125 0.1
0 0.2875 0.1
0 0.2625 0.1
0 0.2375 0.1
0 0.2125 0.1
0 0.1875 0.1
0 0.1625 0.1
0 0.1375 0.1
0 0.1125 0.1
0 0.0875 0.1
0 0.0625 0.1
0 0.0375 0.1
0 0.0125 0.1
0.975 0.475 0.1
0.975 0.45 0.1
0.975 0.425 0.1
0.975 0.4 0.1
0.975 0.375 0.1
0.975 0.35 0.1
0.975 0.325 0.1
0.975 0.3 0.1
0.975 0.275 0.1
0.975 0.25 0.1
0.975 0.225 0.1
0.975 0.2 0.1
0.975 0.175 0.1
0.975 0.15 0.1
0.975 0.125 0.1
0.975 0.1 0.1
0.975 0.075 0.1
0.975 0.05 0.1
0.975 0.025 0.1
0.95 0.475 0.1
0.95 0.45 0.1
0.95 0.425 0.1
0.95 0.4 0.1
0.95 0.375 0.1
0.95 0.35 0.1
0.95 0.325 0.1
0.95 0.3 0.1
0.95 0.275 0.1
0.95 0.25 0.1
0.95 0.225 0.1
0.95 0.2 0.1
0.95 0.175 0.1
0.95 0.15 0.1
0.95 0.125 0.1
0.95 0.1 0.1
0.95 0.075 0.1
0.95 0.05 0.1
0.95 0.025 0.1
0.925 0.475 0.1
0.925 0.45 0.1
0.925 0.425 0.1
0.925 0.4 0.1
0.925 0.375 0.1
0.925 0.35 0.1
0.925 0.325 0.1
0.925 0.3 0.1
0.925 0.275 0.1
0.925 0.25 0.1
0.925 0.225 0.1
0.925 0.2 0.1
0.925 0.175 0.1
0.925 0.15 0.1
0.925 0.125 0.1
0.925 0.1 0.1
0.925 0.075 0.1
0.925 0.05 0.1
0.925 0.025 0.1
0.9 0.475 0.1
0.9 0.45 0.1
0.9 0.425 0.1
0.9 0.4 0.1
0.9 0.375 0.1
0.9 0.35 0.1
0.9 0.325 0.1
0.9 0.3 0.1
0.9 0.275 0.1
0.9 0.25 0.1
0.9 0.225 0.1
0.9 0.2 0.1
0.9 0.175 0.1
0.9 0.15 0.1
0.9 0.125 0.1
0.9 0.1 0.1
0.9 0.075 0.1
0.9 0.05 0.1
0.9 0.025 0.1
0.875 0.475 0.1
0.875 0.45 0.1
0.875 0.425 0.1
0.875 0.4 0.1
0.875 0.375 0.1
0.875 0.35 0.1
0.875 0.325 0.1
0.875 0.3 0.1
0.875 0.275 0.1
0.875 0.25 0.1
0.875 0.225 0.1
0.875 0.2 0.1
0.875 0.175 0.1
0.875 0.15 0.1
0.875 0.125 0.1
0.875 0.1 0.1
0.875 0.075 0.1
0.875 0.05 0.1
0.875 0.025 0.1
0.85 0.475 0.1
0.85 0.45 0.1
0.85 0.425 0.1
0.85 0.4 0.1
0.85 0.375 0.1
0.85 0.35 0.1
0.85 0.325 0.1
0.85 0.3 0.1
0.85 0.275 0.1
0.85 0.25 0.1
0.85 0.225 0.1
0.85 0.2 0.1
0.85 0.175 0.1
0.85 0.15 0.1
0.85 0.125 0.1
0.85 0.1 0.1
0.85 0.075 0.1
0.85 0.05 0.1
0.85 0.025 0.1
0.825 0.475 0.1
0.825 0.45 0.1
0.825 0.425 0.1
0.825 0.4 0.1
0.825 0.375 0.1
0.825 0.35 0.1
0.825 0.325 0.1
0.825 0.3 0.1
0.825 0.275 0.1
0.825 0.25 0.1
0.825 0.225 0.1
0.825 0.2 0.1
0.825 0.175 0.1
0.825 0.15 0.1
0.825 0.125 0.1
0.825 0.1 0.1
0.825 0.075 0.1
0.825 0.05 0.1
0.825 0.025 0.1
0.8 0.475 0.1
0.8 0.45 0.1
0.8 0.425 0.1
0.8 0.4 0.1
0.8 0.375 0.1
0.8 0.35 0.1
0.8 0.325 0.1
0.8 0.3 0.1
0.8 0.275 0.1
0.8 0.25 0.1
0.8 0.225 0.1
0.8 0.2 0.1
0.8 0.175 0.1
0.8 0.15 0.1
0.8 0.125 0.1
0.8 0.1 0.1
0.8 0.075 0.1
0.8 0.05 0.1
0.8 0.025 0.1
0.775 0.475 0.1
0.775 0.45 0.1
0.775 0.425 0.1
0.775 0.4 0.1
0.775 0.375 0.1
0.775 0.35 0.1
0.775 0.325 0.1
0.775 0.3 0.1
0.775 0.275 0.1
0.775 0.25 0.1
0.775 0.225 0.1
0.775 0.2 0.1
0.775 0.175 0.1
0.775 0.15 0.1
0.775 0.125 0.1
0.775 0.1 0.1
0.775 0.075 0.1
0.775 0.05 0.1
0.775 0.025 0.1
0.75 0.475 0.1
0.75 0.45 0.1
0.75 0.425 0.1
0.75 0.4 0.1
0.75 0.375 0.1
0.75 0.35 0.1
0.75 0.325 0.1
0.75 0.3 0.1
0.75 0.275 0.1
0.75 0.25 0.1
0.75 0.225 0.1
0.75 0.2 0.1
0.75 0.175 0.1
0.75 0.15 0.1
0.75 0.125 0.1
0.75 0.1 0.1
0.75 0.075 0.1
0.75 0.05 0.1
0.75 0.025 0.1
0.725 0.475 0.1
0.725 0.45 0.1
0.725 0.425 0.1
0.725 0.4 0.1
0.725 0.375 0.1
0.725 0.35 0.1
0.725 0.325 0.1
0.725 0.3 0.1
0.725 0.275 0.1
0.725 0.25 0.1
0.725 0.225 0.1
0.725 0.2 0.1
0.725 0.175 0.1
0.725 0.15 0.1
0.725 0.125 0.1
0.725 0.1 0.1
0.725 0.075 0.1
0.725 0.05 0.1
0.725 0.025 0.1
0.7 0.475 0.1
0.7 0.45 0.1
0.7 0.425 0.1
0.7 0.4 0.1
0.7 0.375 0.1
0.7 0.35 0.1
0.7 0.325 0.1
0.7 0.3 0.1
0.7 0.275 0.1
0.7 0.25 0.1
0.7 0.225 0.1
0.7 0.2 0.1
0.7 0.175 0.1
0.7 0.15 0.1
0.7 0.125 0.1
0.7 0.1 0.1
0.7 0.075 0.1
0.7 0.05 0.1
0.7 0.025 0.1
0.675 0.475 0.1
0.675 0.45 0.1
0.675 0.425 0.1
0.675 0.4 0.1
0.675 0.375 0.1
0.675 0.35 0.1
0.675 0.325 0.1
0.675 0.3 0.1
0.675 0.275 0.1
0.675 0.25 0.1
0.675 0.225 0.1
0.675 0.2 0.1
0.675 0.175 0.1
0.675 0.15 0.1
0.675 0.125 0.1
0.675 0.1 0.1
0.675 0.075 0.1
0.675 0.05 0.1
0.675 0.025 0.1
0.65 0.475 0.1
0.65 0.45 0.1
0.65 0.425 0.1
0.65 0.4 0.1
0.65 0.375 0.1
0.65 0.35 0.1
0.65 0.325 0.1
0.65 0.3 0.1
0.65 0.275 0.1
0.65 0.25 0.1
0.65 0.225 0.1
0.65 0.2 0.1
0.65 0.175 0.1
0.65 0.15 0.1
0.65 0.125 0.1
0.65 0.1 0.1
0.65 0.075 0.1
0.65 0.05 0.1
0.65 0.025 0.1
0.625 0.475 0.1
0.625 0.45 0.1
0.625 0.425 0.1
0.625 0.4 0.1
0.625 0.375 0.1
0.625 0.35 0.1
0.625 0.325 0.1
0.625 0.3 0.1
0.625 0.275 0.1
0.625 0.25 0.1
0.625 0.225 0.1
0.625 0.2 0.1
0.625 0.175 0.1
0.625 0.15 0.1
0.625 0.125 0.1
0.625 0.1 0.1
0.625 0.075 0.1
0.625 0.05 0.1
0.625 0.025 0.1
0.6 0.475 0.1
0.6 0.45 0.1
0.6 0.425 0.1
0.6 0.4 0.1
0.6 0.375 0.1
0.6 0.35 0.1
0.6 0.325 0.1
0.6 0.3 0.1
0.6 0.275 0.1
0.6 0.25 0.1
0.6 0.225 0.1
0.6 0.2 0.1
0.6 0.175 0.1
0.6 0.15 0.1
0.6 0.125 0.1
0.6 0.1 0.1
0.6 0.075 0.1
0.6 0.05 0.1
0.6 0.025 0.1
0.575 0.475 0.1
0.575 0.45 0.1
0.575 0.425 0.1
0.575 0.4 0.1
0.575 0.375 0.1
0.575 0.35 0.1
0.575 0.325 0.1
0.575 0.3 0.1
0.575 0.275 0.1
0.575 0.25 0.1
0.575 0.225 0.1
0.575 0.2 0.1
0.575 0.175 0.1
0.575 0.15 0.1
0.575 0.125 0.1
0.575 0.1 0.1
0.575 0.075 0.1
0.575 0.05 0.1
0.575 0.025 0.1
0.55 0.475 0.1
0.55 0.45 0.1
0.55 0.425 0.1
0.55 0.4 0.1
0.55 0.375 0.1
0.55 0.35 0.1
0.55 0.325 0.1
0.55 0.3 0.1
0.55 0.275 0.1
0.55 0.25 0.1
0.55 0.225 0.1
0.55 0.2 0.1
0.55 0.175 0.1
0.55 0.15 0.1
0.55 0.125 0.1
0.55 0.1 0.1
0.55 0.075 0.1
0.55 0.05 0.1
0.55 0.025 0.1
0.525 0.475 0.1
0.525 0.45 0.1
0.525 0.425 0.1
0.525 0.4 0.1
0.525 0.375 0.1
0.525 0.35 0.1
0.525 0.325 0.1
0.525 0.3 0.1
0.525 0.275 0.1
0.525 0.25 0.1
0.525 0.225 0.1
0.525 0.2 0.1
0.525 0.175 0.1
0.525 0.15 0.1
0.525 0.125 0.1
0.525 0.1 0.1
0.525 0.075 0.1
0.525 0.05 0.1
0.525 0.025 0.1
0.5 0.475 0.1
0.5 0.45 0.1
0.5 0.425 0.1
0.5 0.4 0.1
0.5 0.375 0.1
0.5 0.35 0.1
0.5 0.325 0.1
0.5 0.3 0.1
0.5 0.275 0.1
0.5 0.25 0.1
0.5 0.225 0.1
0.5 0.2 0.1
0.5 0.175 0.1
0.5 0.15 0.1
0.5 0.125 0.1
0.5 0.1 0.1
0.5 0.075 0.1
0.5 0.05 0.1
0.5 0.025 0.1
0.475 0.475 0.1
0.475 0.45 0.1
0.475 0.425 0.1
0.475 0.4 0.1
0.475 0.375 0.1
0.475 0.35 0.1
0.475 0.325 0.1
0.475 0.3 0.1
0.475 0.275 0.1
0.475 0.25 0.1
0.475 0.225 0.1
0.475 0.2 0.1
0.475 0.175 0.1
0.475 0.15 0.1
0.475 0.125 0.1
0.475 0.1 0.1
0.475 0.075 0.1
0.475 0.05 0.1
0.475 0.025 0.1
0.45 0.475 0.1
0.45 0.45 0.1
0.45 0.425 0.1
0.45 0.4 0.1
0.45 0.375 0.1
0.45 0.35 0.1
0.45 0.325 0.1
0.45 0.3 0.1
0.45 0.275 0.1
0.45 0.25 0.1
0.45 0.225 0.1
0.45 0.2 0.1
0.45 0.175 0.1
0.45 0.15 0.1
0.45 0.125 0.1
0.45 0.1 0.1
0.45 0.075 0.1
0.45 0.05 0.1
0.45 0.025 0.1
0.425 0.475 0.1
0.425 0.45 0.1
0.425 0.425 0.1
0.425 0.4 0.1
0.425 0.375 0.1
0.425 0.35 0.1
0.425 0.325 0.1
0.425 0.3 0.1
0.425 0.275 0.1
0.425 0.25 0.1
0.425 0.225 0.1
0.425 0.2 0.1
0.425 0.175 0.1
0.425 0.15 0.1
0.425 0.125 0.1
0.425 0.1 0.1
0.425 0.075 0.1
0.425 0.05 0.1
0.425 0.025 0.1
0.4 0.475 0.1
0.4 0.45 0.1
0.4 0.425 0.1
0.4 0.4 0.1
0.4 0.375 0.1
0.4 0.35 0.1
0.4 0.325 0.1
0.4 0.3 0.1
0.4 0.275 0.1
0.4 0.25 0.1
0.4 0.225 0.1
0.4 0.2 0.1
0.4 0.175 0.1
0.4 0.15 0.1
0.4 0.125 0.1
0.4 0.1 0.1
0.4 0.075 0.1
0.4 0.05 0.1
0.4 0.025 0.1
0.375 0.475 0.1
0.375 0.45 0.1
0.375 0.425 0.1
0.375 0.4 0.1
0.375 0.375 0.1
[...]
    <PointData>
      <DataArray type="Float64" NumberOfComponents="3" Name="Velocity" format="ascii">
0 0 0
0 0 0
0 0 0
0 0 0
0 0 0
0 0 0
0 0 0
0 0 0
0 0 0
0 0 0
0 0 0
0 0 0
0 0 0
0 0 0
0 0 0
0 0 0
0 0 0
0 0 0
0 0 0
0 0 0
0 0 0
0 0 0
0 0 0
0 0 0
0 0 0
0 0 0
0 0 0
0 0 0
0 0 0
0 0 0
0 0 0
0 0 0
0 0 0
0 0 0
0 0 0
0 0 0
0 0 0
0 0 0
0 0 0
0 0 0
0 0 0
0 0 0
0 0 0
0 0 0
0 0 0
0 0 0
0 0 0
0 0 0
0 0 0
0 0 0
0 0 0
0 0 0
0 0 0
0 0 0
0 0 0
0 0 0
0 0 0
0 0 0
0 0 0
0 0 0
0 0 0
0 0 0
0 0 0
0 0 0
0 0 0
0 0 0
0 0 0
0 0 0
0 0 0
0 0 0
0 0 0
0 0 0
0 0 0
0 0 0
0 0 0
0 0 0
0 0 0
0 0 0
0 0 0
0 0 0
0 0 0
0 0 0
0 0 0
0 0 0
0 0 0
0 0 0
0 0 0
0 0 0
0 0 0
0 0 0
0 0 0
0 0 0
0 0 0
0 0 0
0 0 0
0 0 0
0 0 0
0 0 0
0 0 0
0 0 0
0 0 0
0 0 0
0 0 0
0 0 0
0 0 0
0 0 0
0 0 0
0 0 0
0 0 0
0 0 0
0 0 0
0 0 0
0 0 0
0 0 0
0 0 0
0 0 0
0 0 0
0 0 0
0 0 0
0 0 0
0 0 0
0 0 0
-0.00283129 -0.0417375 0
-0.00994619 -0.0765684 0
-0.0203947 -0.105401 0
-0.0325075 -0.128819 0
-0.0463418 -0.147015 0
-0.0614784 -0.159597 0
-0.0765691 -0.167184 0
-0.091438 -0.169912 0
-0.105758 -0.168207 0
-0.118926 -0.162907 0
-0.130864 -0.154054 0
-0.141396 -0.142308 0
-0.150396 -0.127997 0
-0.158065 -0.11153 0
-0.164337 -0.093716 0
-0.169118 -0.0746234 0
-0.172559 -0.0547432 0
-0.174577 -0.0344704 0
-0.175284 -0.0139891 0
-0.174759 0.00619881 0
-0.173021 0.026073 0
-0.170136 0.0455612 0
-0.166083 0.0642759 0
-0.160807 0.0821572 0
-0.154376 0.0989022 0
-0.146788 0.114237 0
-0.138103 0.128066 0
-0.12838 0.139843 0
-0.117572 0.149335 0
-0.105837 0.156243 0
-0.0933736 0.160098 0
-0.0801932 0.160812 0
-0.0667123 0.157778 0
-0.0534315 0.150452 0
-0.0407981 0.138124 0
-0.0288496 0.120366 0
-0.0181512 0.0974362 0
-0.00920365 0.0693164 0
-0.00312746 0.0358556 0
-0.00124448 -0.0204019 0
-0.00591511 -0.0599342 0
-0.0149577 -0.0917231 0
-0.0263058 -0.117832 0
-0.0392839 -0.138654 0
-0.053944 -0.154101 0
-0.069127 -0.164155 0
-0.0841305 -0.169319 0
-0.0987982 -0.169745 0
-0.112562 -0.166211 0
-0.125113 -0.159067 0
-0.136364 -0.148676 0
-0.146125 -0.135629 0
-0.154436 -0.120136 0
-0.161425 -0.102936 0
-0.166939 -0.0844713 0
-0.171049 -0.0648966 0
-0.173782 -0.0448167 0
-0.175125 -0.0243669 0
-0.175197 -0.00393659 0
-0.174053 0.0161114 0
-0.17173 0.0358586 0
-0.168263 0.0549983 0
-0.163588 0.0733281 0
-0.157722 0.0907156 0
-0.150705 0.106775 0
-0.142548 0.121424 0
-0.13334 0.13428 0
-0.123063 0.144938 0
-0.111756 0.153215 0
-0.0996596 0.158603 0
-0.0868154 0.160907 0
-0.0734234 0.159837 0
-0.0600008 0.154715 0
-0.0470226 0.145018 0
-0.0346735 0.129953 0
-0.0232848 0.109583 0
-0.0133646 0.0840865 0
-0.00569374 0.0533494 0
-0.00291768 0.0168378 0
0 0 0
0 0 0
0 0 0
0 0 0
0 0 0
0 0 0
0 0 0
0 0 0
0 0 0
0 0 0
0 0 0
0 0 0
0 0 0
0 0 0
0 0 0
0 0 0
0 0 0
0 0 0
0 0 0
0 0 0
0 0 0
0 0 0
0 0 0
0 0 0
0 0 0
0 0 0
0 0 0
0 0 0
0 0 0
0 0 0
0 0 0
0 0 0
0 0 0
0 0 0
0 0 0
0 0 0
0 0 0
0 0 0
0 0 0
-0.004427 -0.0357194 0
-0.00434886 -0.0307714 0
-0.00374927 -0.0258688 0
-0.00247771 -0.021928 0
-0.00186098 -0.0190594 0
-0.00161443 -0.0164404 0
-0.001465 -0.0139991 0
-0.00133888 -0.011741 0
-0.00121838 -0.00966933 0
-0.00109892 -0.00778519 0
-0.000978529 -0.00608935 0
-0.000855523 -0.00458428 0
-0.000728168 -0.00327498 0
-0.000594933 -0.00216927 0
-0.000455256 -0.00127739 0
-0.000311058 -0.000610722 0
-0.000167996 -0.000179683 0
-2.899e-05 2.15598e-05 0
5.82995e-05 5.01466e-05 0
-0.0107085 -0.0658214 0
-0.0106123 -0.0571733 0
-0.00956863 -0.0496181 0
-0.00753221 -0.0430553 0
-0.00622755 -0.0373958 0
-0.00552587 -0.0321881 0
-0.00502042 -0.0274356 0
-0.00457993 -0.0230978 0
-0.00416407 -0.0191469 0
-0.00375787 -0.015566 0
-0.0033532 -0.0123468 0
-0.00294351 -0.00948726 0
-0.00252279 -0.00699134 0
-0.00208602 -0.00486758 0
-0.00163086 -0.00312767 0
-0.0011609 -0.00178323 0
-0.000691142 -0.000839094 0
-0.000261303 -0.000277343 0
2.95844e-05 -3.77169e-05 0
-0.0196638 -0.0915727 0
-0.0188938 -0.0802694 0
-0.017293 -0.0704714 0
-0.0148659 -0.061833 0
-0.0129802 -0.053981 0
-0.0116408 -0.0465981 0
-0.0105675 -0.0398379 0
-0.00962092 -0.0336787 0
-0.00873773 -0.028079 0
-0.00788592 -0.0230075 0
-0.00704579 -0.0184456 0
-0.00620243 -0.0143845 0
-0.00534339 -0.0108235 0
-0.0044591 -0.00776781 0
-0.0035455 -0.00522582 0
-0.00260954 -0.00320539 0
-0.00167927 -0.00170712 0
-0.000822598 -0.000714313 0
-0.000177981 -0.000181169 0
-0.0308599 -0.112729 0
-0.0291859 -0.0995319 0
-0.0268941 -0.0879468 0
-0.0240551 -0.077604 0
-0.0216554 -0.0681269 0
-0.0196007 -0.0591089 0
-0.0178284 -0.050763 0
-0.0162337 -0.0431148 0
-0.0147447 -0.0361398 0
-0.0133153 -0.0298087 0
-0.0119138 -0.0240998 0
-0.0105158 -0.0190002 0
-0.00910172 -0.0145047 0
-0.00765694 -0.0106142 0
-0.00617557 -0.00733356 0
-0.00466722 -0.00466782 0
-0.00316905 -0.00261842 0
-0.00176516 -0.00117753 0
-0.000615725 -0.00032136 0
-0.0437023 -0.129187 0
-0.0410531 -0.11473 0
-0.0380778 -0.101888 0
-0.034721 -0.0902329 0
-0.0317229 -0.079598 0
-0.0289511 -0.0694205 0
-0.0264374 -0.0599065 0
-0.0241193 -0.0511202 0
-0.0219347 -0.043064 0
-0.0198342 -0.0357218 0
-0.0177789 -0.0290761 0
-0.0157367 -0.0231139 0
-0.0136814 -0.017828 0
-0.0115934 -0.013217 0
-0.00946391 -0.00928363 0
-0.00730232 -0.00603348 0
-0.00514824 -0.00347359 0
-0.00308938 -0.00161122 0
-0.00128607 -0.000453081 0
-0.0575561 -0.140989 0
-0.0539317 -0.12588 0
-0.0503566 -0.112319 0
-0.0464693 -0.0998472 0
-0.0427671 -0.0884079 0
-0.0392889 -0.0774258 0
-0.036032 -0.0671013 0
-0.032963 -0.057507 0
-0.0300376 -0.0486619 0
-0.0272116 -0.0405626 0
-0.0244444 -0.0331988 0
-0.0216998 -0.0265608 0
-0.0189463 -0.0206424 0
-0.0161594 -0.015442 0
-0.0133257 -0.0109632 0
-0.0104504 -0.00721528 0
-0.00756812 -0.00421449 0
-0.00475769 -0.00198627 0
-0.00216073 -0.000567685 0
-0.0718096 -0.148302 0
-0.0673089 -0.133035 0
-0.063208 -0.119222 0
-0.0588623 -0.106415 0
-0.0544599 -0.0945376 0
-0.0502747 -0.0830798 0
-0.0462823 -0.0722662 0
-0.042462 -0.0621694 0
-0.0387836 -0.0528153 0
-0.0352107 -0.0442095 0
-0.0317049 -0.0363489 0
-0.0282284 -0.0292286 0
-0.0247459 -0.0228455 0
-0.0212279 -0.0172003 0
-0.0176546 -0.0123001 0
-0.0140231 -0.00816024 0
-0.0103559 -0.00480778 0
-0.00671296 -0.00228637 0
-0.00320394 -0.000659531 0
-0.0859627 -0.151248 0
-0.0807199 -0.136274 0
-0.0761837 -0.122624 0
-0.0714593 -0.10988 0
-0.0664398 -0.0979554 0
-0.0615803 -0.0863685 0
-0.0568796 -0.0753764 0
-0.0523295 -0.065065 0
-0.0479116 -0.0554678 0
-0.0435976 -0.0465977 0
-0.0393529 -0.0384586 0
-0.0351397 -0.0310511 0
-0.0309201 -0.0243765 0
-0.0266592 -0.0184399 0
-0.0223294 -0.0132533 0
-0.0179161 -0.00883927 0
-0.0134244 -0.0052361 0
-0.0088876 -0.00250354 0
-0.00437537 -0.00072618 0
-0.0995738 -0.150297 0
-0.0937559 -0.135962 0
-0.0889122 -0.122797 0
-0.0838958 -0.110417 0
-0.0783564 -0.0987509 0
-0.072891 -0.087343 0
-0.0675334 -0.0764627 0
-0.0622962 -0.0662063 0
-0.0571737 -0.0566157 0
-0.0521461 -0.0477116 0
-0.0471837 -0.0395047 0
-0.0422497 -0.0320017 0
-0.0373042 -0.0252093 0
-0.0323067 -0.0191377 0
-0.0272204 -0.0138047 0
-0.0220164 -0.00924043 0
-0.0166786 -0.00549303 0
-0.011209 -0.00263526 0
-0.00563269 -0.000767037 0
-0.112352 -0.145919 0
-0.106135 -0.132433 0
-0.101118 -0.119991 0
-0.0959028 -0.108219 0
-0.0899204 -0.0970762 0
-0.0839233 -0.0861189 0
-0.077977 -0.0756108 0
-0.0721129 -0.0656545 0
-0.0663382 -0.0563004 0
-0.0606422 -0.0475768 0
-0.0550005 -0.0395014 0
-0.0493784 -0.032087 0
-0.0437343 -0.0253459 0
-0.0380221 -0.0192939 0
-0.0321949 -0.0139545 0
-0.0262077 -0.00936444 0
-0.020021 -0.00557988 0
-0.0136034 -0.00268276 0
-0.00693359 -0.000782618 0
-0.124081 -0.138352 0
-0.117626 -0.12592 0
-0.112553 -0.114421 0
-0.107215 -0.103508 0
-0.100866 -0.0931371 0
-0.094426 -0.0828648 0
-0.0879728 -0.0729533 0
-0.0815549 -0.0635128 0
-0.0751932 -0.054601 0
-0.0688869 -0.0462531 0
-0.0626178 -0.0384933 0
-0.0563538 -0.0313401 0
-0.0500518 -0.0248111 0
-0.0436604 -0.018927 0
-0.0371219 -0.0137165 0
-0.0303749 -0.00922145 0
-0.0233557 -0.00550352 0
-0.0159989 -0.00264984 0
-0.00823727 -0.000774177 0
-0.134587 -0.128168 0
-0.12805 -0.11691 0
-0.123013 -0.106504 0
-0.11761 -0.0966271 0
-0.110986 -0.0871955 0
-0.104193 -0.0777872 0
-0.0973184 -0.0686568 0
-0.0904257 -0.0599156 0
-0.0835497 -0.0516256 0
-0.0767 -0.0438271 0
-0.0698649 -0.0365492 0
-0.0630153 -0.0298152 0
-0.0561071 -0.023647 0
-0.0490835 -0.0180694 0
-0.0418765 -0.0131148 0
-0.0344083 -0.00882862 0
-0.0265912 -0.00527492 0
-0.0183272 -0.00254218 0
-0.0095055 -0.000743488 0
-0.143714 -0.115663 0
-0.137273 -0.105772 0
-0.132354 -0.0965815 0
-0.126938 -0.0878639 0
-0.120124 -0.0795074 0
-0.113061 -0.071107 0
-0.105846 -0.0629073 0
-0.0985576 -0.0550182 0
-0.0912431 -0.0475031 0
-0.0839217 -0.040405 0
-0.0765883 -0.0337558 0
-0.0692169 -0.0275822 0
-0.0617627 -0.0219091 0
-0.0541639 -0.016764 0
-0.0463427 -0.0121816 0
-0.0382057 -0.0082083 0
-0.0296428 -0.00490803 0
-0.0205255 -0.00236683 0
-0.0107033 -0.000692695 0
-0.151383 -0.101134 0
-0.145135 -0.0927673 0
-0.140457 -0.0849591 0
-0.135077 -0.0775081 0
-0.128152 -0.0703293 0
-0.120895 -0.0630493 0
-0.113417 -0.0559001 0
-0.10581 -0.0489882 0
-0.0981328 -0.042376 0
-0.0904133 -0.0361064 0
-0.0826531 -0.0302125 0
-0.0748289 -0.0247223 0
-0.0668956 -0.0196624 0
-0.0587867 -0.0150614 0
-0.0504157 -0.0109543 0
-0.0416749 -0.00738645 0
-0.0324342 -0.00441888 0
-0.0225377 -0.00213175 0
-0.0117996 -0.000624196 0
-0.157633 -0.0851757 0
-0.151598 -0.0783544 0
-0.147224 -0.0719914 0
-0.141951 -0.0658645 0
-0.13498 -0.0599194 0
-0.127595 -0.0538392 0
-0.119923 -0.0478336 0
-0.112069 -0.0419994 0
-0.104101 -0.0363944 0
-0.0960576 -0.0310595 0
-0.0879437 -0.0260269 0
-0.0797392 -0.0213244 0
-0.0713985 -0.0169784 0
-0.0628514 -0.0130171 0
-0.0540037 -0.00947405 0
-0.0447354 -0.00639152 0
-0.0348988 -0.00382486 0
-0.0243148 -0.00184553 0
-0.0127675 -0.000540556 0
-0.162509 -0.0680402 0
-0.156693 -0.0628168 0
-0.15262 -0.0579225 0
-0.147521 -0.0531659 0
-0.140544 -0.0485104 0
-0.133082 -0.0436949 0
-0.125276 -0.0389056 0
-0.117241 -0.0342277 0
-0.109054 -0.0297126 0
-0.100758 -0.0253974 0
-0.0923643 -0.0213118 0
-0.083854 -0.0174818 0
-0.0751813 -0.0139325 0
-0.0662732 -0.01069 0
-0.0570289 -0.00778452 0
-0.0473186 -0.00525341 0
-0.0369803 -0.0031442 0
-0.0258156 -0.00151712 0
-0.0135844 -0.000444428 0
-0.166064 -0.050091 0
-0.16047 -0.0464754 0
-0.15666 -0.0430327 0
-0.151734 -0.0396608 0
-0.144787 -0.0363348 0
-0.137294 -0.0328323 0
-0.129408 -0.0293128 0
-0.121255 -0.0258494 0
-0.112916 -0.0224861 0
-0.104439 -0.0192549 0
-0.0958387 -0.0161819 0
-0.087098 -0.0132904 0
-0.0781713 -0.0106023 0
-0.0689832 -0.00814042 0
-0.0594283 -0.00593038 0
-0.0493692 -0.00400277 0
-0.038633 -0.00239551 0
-0.0270068 -0.00115561 0
-0.0142322 -0.000338498 0
-0.168347 -0.0316873 0
-0.162976 -0.0296286 0
-0.159368 -0.0276142 0
-0.154579 -0.0256198 0
-0.147676 -0.0236316 0
-0.140189 -0.0214667 0
-0.132275 -0.01925 0
-0.124061 -0.0170391 0
-0.115634 -0.0148694 0
-0.107045 -0.0127668 0
-0.09831 -0.0107527 0
-0.0894148 -0.00884635 0
-0.0803134 -0.0070658 0
-0.0709293 -0.00542934 0
-0.0611541 -0.00395667 0
-0.0508452 -0.0026704 0
-0.0398226 -0.00159743 0
-0.0278636 -0.000770068 0
-0.0146975 -0.000225435 0
-0.169382 -0.0130043 0
-0.164204 -0.012457 0
-0.160725 -0.0118722 0
-0.156038 -0.0112674 0
-0.149194 -0.0106262 0
-0.141747 -0.00980792 0
-0.133848 -0.00890811 0
-0.125627 -0.00796874 0
-0.117173 -0.00701525 0
-0.108538 -0.0060665 0
-0.0997406 -0.00513845 0
-0.0907663 -0.00424541 0
-0.0815704 -0.00340074 0
-0.072076 -0.00261732 0
-0.0621734 -0.00190814 0
-0.0517177 -0.00128685 0
-0.0405254 -0.00076842 0
-0.0283689 -0.000369456 0
-0.0149711 -0.000107864 0
-0.16915 0.00561706 0
-0.164109 0.00472966 0
-0.16071 0.00390936 0
-0.156107 0.0031491 0
-0.14934 0.00246264 0
-0.141962 0.00194321 0
-0.13412 0.00152873 0
-0.125943 0.00119495 0
-0.11752 0.000927472 0
-0.108903 0.000715257 0
-0.100112 0.000548505 0
-0.0911331 0.000418245 0
-0.0819226 0.000316394 0
-0.0724042 0.000235941 0
-0.0624686 0.00017116 0
-0.0519714 0.000117822 0
-0.040729 7.34284e-05 0
-0.0285138 3.74691e-05 0
-0.0150484 1.1658e-05 0
-0.167625 0.0239848 0
-0.162665 0.0217095 0
-0.159333 0.0195218 0
-0.15481 0.0174281 0
-0.148133 0.0154359 0
-0.140847 0.0135967 0
-0.133098 0.0118834 0
-0.125012 0.0102901 0
-0.116675 0.00881361 0
-0.108139 0.00745085 0
-0.0994225 0.00619827 0
-0.0905133 0.00505242 0
-0.0813677 0.00401065 0
-0.0719112 0.003072 0
-0.0620371 0.00223811 0
-0.0516038 0.00151427 0
-0.0404315 0.000910453 0
-0.0282971 0.000442183 0
-0.0149287 0.000130647 0
-0.164793 0.0419678 0
-0.159875 0.0383332 0
-0.156613 0.0347989 0
-0.152161 0.0313864 0
-0.14559 0.0281033 0
-0.138423 0.0249676 0
-0.130804 0.0219831 0
-0.122856 0.0191588 0
-0.114659 0.0165017 0
-0.106265 0.0140158 0
-0.0976907 0.0117037 0
-0.0889231 0.00956717 0
-0.0799203 0.00760895 0
-0.0706105 0.00583387 0
-0.0608909 0.0042507 0
-0.0506255 0.00287391 0
-0.0396416 0.00172548 0
-0.0277254 0.000836409 0
-0.0146159 0.000246697 0
-0.160709 0.059233 0
-0.155813 0.0543104 0
-0.152578 0.0494879 0
-0.148187 0.0447938 0
-0.14174 0.0402597 0
-0.134723 0.0358692 0
-0.127275 0.0316569 0
-0.119512 0.0276463 0
-0.111511 0.0238532 0
-0.103319 0.0202886 0
-0.0949512 0.0169602 0
-0.0863958 0.0138749 0
-0.0776119 0.0110401 0
-0.0685311 0.00846609 0
-0.0590563 0.00616806 0
-0.0490594 0.00416895 0
-0.0383783 0.00250183 0
-0.0268125 0.00121211 0
-0.0141176 0.000357477 0
-0.155417 0.0756471 0
-0.150539 0.0694448 0
-0.147278 0.0633615 0
-0.142941 0.0574295 0
-0.136636 0.0516992 0
-0.129802 0.0461141 0
-0.122565 0.0407354 0
-0.115034 0.0356002 0
-0.107283 0.030733 0
-0.0993521 0.0261507 0
-0.091256 0.0218663 0
-0.0829815 0.0178906 0
-0.0744899 0.0142352 0
-0.0657173 0.0109149 0
-0.0565736 0.00795054 0
-0.0469407 0.0053724 0
-0.0366703 0.00322328 0
-0.0255794 0.00156149 0
-0.0134452 0.00046072 0
-0.148935 0.0909504 0
-0.144075 0.083484 0
-0.140763 0.07617 0
-0.136485 0.0690691 0
-0.130347 0.0622199 0
-0.123728 0.0555186 0
-0.116744 0.049052 0
-0.109495 0.0428712 0
-0.102047 0.0370086 0
-0.0944363 0.0314869 0
-0.086674 0.0263231 0
-0.0787466 0.0215316 0
-0.0706176 0.0171271 0
-0.0622281 0.013128 0
-0.0534963 0.00955969 0
-0.0443163 0.00645809 0
-0.0345562 0.00387411 0
-0.0240542 0.00187695 0
-0.0126141 0.000554214 0
-0.141317 0.10488 0
-0.136464 0.0961867 0
-0.133112 0.0876999 0
-0.128917 0.079512 0
-0.122962 0.0716315 0
-0.11659 0.0639052 0
-0.109901 0.0564448 0
-0.102982 0.0493136 0
-0.0958912 0.0425514 0
-0.0886581 0.0361852 0
-0.0812902 0.0302352 0
-0.0737734 0.0247183 0
-0.0660733 0.0196514 0
-0.0581366 0.0150554 0
-0.0498909 0.0109584 0
-0.0412443 0.00740068 0
-0.0320836 0.00443902 0
-0.0222716 0.00215107 0
-0.0116432 0.000635795 0
-0.132587 0.117287 0
-0.127758 0.107387 0
-0.1244 0.097789 0
-0.120312 0.0885804 0
-0.114573 0.0797487 0
-0.108487 0.0710992 0
-0.102139 0.0627549 0
-0.0956005 0.054786 0
-0.08892 0.0472369 0
-0.0821206 0.0401379 0
-0.0752054 0.033511 0
-0.0681589 0.0273745 0
-0.0609493 0.0217465 0
-0.0535291 0.0166488 0
-0.0458361 0.0121111 0
-0.0377936 0.00817578 0
-0.0293091 0.00490321 0
-0.020273 0.00237666 0
-0.0105552 0.000703334 0
-0.122814 0.127751 0
-0.118056 0.116747 0
-0.114738 0.106152 0
-0.11077 0.0960344 0
-0.105291 0.0863721 0
-0.099538 0.0769259 0
-0.0935782 0.0678273 0
-0.0874717 0.0591516 0
-0.0812549 0.0509461 0
-0.0749433 0.0432427 0
-0.0685355 0.0360641 0
-0.0620149 0.0294287 0
-0.0553516 0.0233545 0
-0.0485045 0.0178631 0
-0.0414219 0.0129841 0
-0.034043 0.00876016 0
-0.0262976 0.00525245 0
-0.0181058 0.00254669 0
-0.00937591 0.000754737 0
-0.112105 0.136051 0
-0.107501 0.124038 0
-0.104262 0.112562 0
-0.100439 0.101662 0
-0.0952609 0.0913111 0
-0.0898847 0.081216 0
-0.0843617 0.0715128 0
-0.078737 0.0622805 0
-0.0730345 0.0535673 0
-0.0672615 0.0454048 0
-0.0614114 0.0378149 0
-0.0554664 0.0308151 0
-0.0493986 0.0244223 0
-0.043173 0.0186568 0
-0.0367485 0.0135465 0
-0.0300804 0.00913216 0
-0.0231216 0.0054733 0
-0.0158233 0.00265443 0
-0.00813476 0.00078795 0
-0.100588 0.141931 0
-0.0962436 0.129023 0
-0.0931347 0.116809 0
-0.0894766 0.105281 0
-0.0846433 0.0943892 0
-0.0796894 0.0838081 0
-0.0746517 0.073671 0
-0.0695567 0.064053 0
-0.0644153 0.0549995 0
-0.0592262 0.0465396 0
-0.053978 0.0386933 0
-0.0486511 0.0314765 0
-0.0432198 0.0249039 0
-0.0376547 0.0189937 0
-0.031925 0.0137708 0
-0.0260017 0.00927239 0
-0.0198604 0.00555341 0
-0.013484 0.00269352 0
-0.00686412 0.000800972 0
-0.0884771 0.144968 0
-0.0845151 0.131373 0
-0.081574 0.118631 0
-0.0780812 0.106665 0
-0.0736246 0.0954186 0
-0.0691409 0.0845476 0
-0.0646346 0.0741746 0
-0.0601119 0.0643645 0
-0.0555712 0.0551568 0
-0.0510035 0.046577 0
-0.0463926 0.0386426 0
-0.0417174 0.031367 0
-0.036954 0.0247628 0
-0.0320778 0.0188451 0
-0.0270677 0.0136351 0
-0.021909 0.00916478 0
-0.0165989 0.00548215 0
-0.0111508 0.00265821 0
-0.00559915 0.000791901 0
-0.0760369 0.144975 0
-0.0725862 0.130895 0
-0.0698146 0.117824 0
-0.0664753 0.105607 0
-0.0624337 0.0942258 0
-0.0584618 0.0833005 0
-0.0545225 0.0729191 0
-0.0506035 0.0631326 0
-0.0466924 0.0539743 0
-0.0427726 0.0454663 0
-0.0388236 0.0376233 0
-0.0348225 0.0304562 0
-0.0307468 0.0239752 0
-0.0265762 0.0181924 0
-0.0222974 0.0131248 0
-0.0179085 0.00879815 0
-0.0134256 0.00525153 0
-0.00889031 0.00254376 0
-0.00437735 0.000759003 0
-0.0636049 0.141574 0
-0.0607182 0.127298 0
-0.0580745 0.114132 0
-0.0549085 0.101919 0
-0.0513384 0.0906854 0
-0.0479034 0.0799758 0
-0.0445481 0.0698355 0
-0.0412487 0.0603052 0
-0.037982 0.0514143 0
-0.0347232 0.0431815 0
-0.0314471 0.0356184 0
-0.0281293 0.0287335 0
-0.0247478 0.0225346 0
-0.021286 0.0170311 0
-0.0177368 0.012236 0
-0.0141079 0.0081685 0
-0.0104308 0.00485761 0
-0.00677047 0.00234707 0
-0.00323775 0.000700858 0
-0.0515436 0.134309 0
-0.0491658 0.120251 0
-0.0466137 0.10737 0
-0.043702 0.0955267 0
-0.0406298 0.0847576 0
-0.0377249 0.0745384 0
-0.0349518 0.0648955 0
-0.0322732 0.0558652 0
-0.0296513 0.0474712 0
-0.0270515 0.0397266 0
-0.0244437 0.0326388 0
-0.0218023 0.0262134 0
-0.0191064 0.0204563 0
-0.0163419 0.015375 0
-0.0135056 0.0109792 0
-0.010612 0.00728227 0
-0.00770237 0.0043028 0
-0.00485869 0.00206782 0
-0.00221978 0.000616628 0
-0.0400738 0.122806 0
-0.0382303 0.109603 0
-0.0357824 0.0975672 0
-0.0331402 0.0865013 0
-0.0305511 0.0764597 0
-0.0281666 0.0669866 0
-0.0259723 0.0581038 0
-0.0239077 0.0498305 0
-0.0219168 0.0421755 0
-0.0199565 0.0351412 0
-0.0179939 0.0287291 0
-0.0160038 0.0229418 0
-0.0139669 0.0177841 0
-0.0118713 0.0132625 0
-0.00971599 0.00938518 0
-0.00751765 0.00616097 0
-0.00532173 0.00359926 0
-0.0032179 0.00171046 0
-0.00136134 0.000506597 0
-0.0294133 0.106957 0
-0.0282217 0.0952686 0
-0.0259191 0.0846054 0
-0.0234419 0.0747471 0
-0.0213135 0.06574 0
-0.0194698 0.0573155 0
-0.017859 0.0494922 0
-0.0163914 0.0422585 0
-0.0149994 0.0356003 0
-0.0136375 0.0295072 0
-0.0122746 0.0239746 0
-0.0108887 0.0190029 0
-0.00946349 0.0145968 0
-0.00798921 0.0107637 0
-0.00646525 0.0075118 0
-0.00490693 0.0048478 0
-0.00335664 0.00277437 0
-0.00190097 0.00128754 0
-0.00069565 0.000373359 0
-0.0197196 0.0868028 0
-0.0192625 0.077178 0
-0.0172512 0.0682665 0
-0.0149109 0.0600453 0
-0.0132208 0.0525175 0
-0.0119359 0.0455483 0
-0.0108947 0.0391426 0
-0.00998026 0.0332612 0
-0.00912554 0.0278721 0
-0.00829209 0.0229569 0
-0.00745613 0.0185081 0
-0.00660136 0.0145261 0
-0.00571595 0.0110169 0
-0.00479234 0.00798966 0
-0.00382954 0.00545413 0
-0.00283847 0.00341743 0
-0.00185214 0.00187931 0
-0.000942203 0.000826543 0
-0.000244206 0.000223469 0
-0.0114239 0.0624508 0
-0.0114944 0.055484 0
-0.00992544 0.0486386 0
-0.00790328 0.0424289 0
-0.00668125 0.0368752 0
-0.00593726 0.0318288 0
-0.00539898 0.0272313 0
-0.00494528 0.0230267 0
-0.00452553 0.0191816 0
-0.00411568 0.01568 0
-0.0037021 0.0125169 0
-0.0032755 0.00969459 0
-0.00282886 0.00722024 0
-0.00235722 0.00510428 0
-0.00185908 0.00335812 0
-0.0013398 0.00199064 0
-0.000819082 0.0010027 0
-0.000344987 0.000379736 0
-1.14169e-05 7.99183e-05 0
-0.00522366 0.034138 0
-0.00507137 0.0303417 0
-0.00404601 0.0259415 0
-0.00278713 0.0222075 0
-0.00214595 0.0191588 0
-0.00186512 0.0164853 0