<?xml version="1.0"?>
<VTKFile type="UnstructuredGrid">
  <UnstructuredGrid>
  <Piece NumberOfPoints="3321"  NumberOfCells="1600">
    <Points>
      <DataArray type="Float64" NumberOfComponents="3" format="ascii">
0 0 0.1
1 0 0.1
1 0.5 0.1
0 0.5 0.1
0.025 0 0.1
0.05 0 0.1
0.075 0 0.1
0.1 0 0.1
0.125 0 0.1
0.15 0 0.1
0.175 0 0.1
0.2 0 0.1
0.225 0 0.1
0.25 0 0.1
0.275 0 0.1
0.3 0 0.1
0.325 0 0.1
0.35 0 0.1
0.375 0 0.1
0.4 0 0.1
0.425 0 0.1
0.45 0 0.1
0.475 0 0.1
0.5 0 0.1
0.525 0 0.1
0.55 0 0.1
0.575 0 0.1
0.6 0 0.1
0.625 0 0.1
0.65 0 0.1
0.675 0 0.1
0.7 0 0.1
0.725 0 0.1
0.75 0 0.1
0.775 0 0.1
0.8 0 0.1
0.825 0 0.1
0.85 0 0.1
0.875 0 0.1
0.9 0 0.1
0.925 0 0.1
0.95 0 0.1
0.975 0 0.1
0.0125 0 0.1
0.0375 0 0.1
0.0625 0 0.1
0.0875 0 0.1
0.1125 0 0.1
0.1375 0 0.1
0.1625 0 0.1
0.1875 0 0.1
0.2125 0 0.1
0.2375 0 0.1
0.2625 0 0.1
0.2875 0 0.1
0.3125 0 0.1
0.3375 0 0.1
0.3625 0 0.1
0.3875 0 0.1
0.4125 0 0.1
0.4375 0 0.1
0.4625 0 0.1
0.4875 0 0.1
0.5125 0 0.1
0.5375 0 0.1
0.5625 0 0.1
0.5875 0 0.1
0.6125 0 0.1
0.6375 0 0.1
0.6625 0 0.1
0.6875 0 0.1
0.7125 0 0.1
0.7375 0 0.1
0.7625 0 0.1
0.7875 0 0.1
0.8125 0 0.1
0.8375 0 0.1
0.8625 0 0.1
0.8875 0 0.1
0.9125 0 0.1
0.9375 0 0.1
0.9625 0 0.1
0.9875 0 0.1
1 0.025 0.1
1 0.05 0.1
1 0.075 0.1
1 0.1 0.1
1 0.125 0.1
1 0.15 0.1
1 0.175 0.1
1 0.2 0.1
1 0.225 0.1
1 0.25 0.1
1 0.275 0.1
1 0.3 0.1
1 0.325 0.1
1 0.35 0.1
1 0.375 0.1
1 0.4 0.1
1 0.425 0.1
1 0.45 0.1
1 0.475 0.1
1 0.0125 0.1
1 0.0375 0.1
1 0.0625 0.1
1 0.0875 0.1
1 0.1125 0.1
1 0.1375 0.1
1 0.1625 0.1
1 0.1875 0.1
1 0.2125 0.1
1 0.2375 0.1
1 0.2625 0.1
1 0.2875 0.1
1 0.3125 0.1
1 0.3375 0.1
1 0.3625 0.1
1 0.3875 0.1
1 0.4125 0.1
1 0.4375 0.1
1 0.4625 0.1
1 0.4875 0.1
0.975 0.5 0.1
0.95 0.5 0.1
0.925 0.5 0.1
0.9 0.5 0.1
0.875 0.5 0.1
0.85 0.5 0.1
0.825 0.5 0.1
0.8 0.5 0.1
0.775 0.5 0.1
0.75 0.5 0.1
0.725 0.5 0.1
0.7 0.5 0.1
0.675 0.5 0.1
0.65 0.5 0.1
0.625 0.5 0.1
0.6 0.5 0.1
0.575 0.5 0.1
0.55 0.5 0.1
0.525 0.5 0.1
0.5 0.5 0.1
0.475 0.5 0.1
0.45 0.5 0.1
0.425 0.5 0.1
0.4 0.5 0.1
0.375 0.5 0.1
0.35 0.5 0.1
0.325 0.5 0.1
0.3 0.5 0.1
0.275 0.5 0.1
0.25 0.5 0.1
0.225 0.5 0.1
0.2 0.5 0.1
0.175 0.5 0.1
0.15 0.5 0.1
0.125 0.5 0.1
0.1 0.5 0.1
0.075 0.5 0.1
0.05 0.5 0.1
0.025 0.5 0.1
0.9875 0.5 0.1
0.9625 0.5 0.1
0.9375 0.5 0.1
0.9125 0.5 0.1
0.8875 0.5 0.1
0.8625 0.5 0.1
0.8375 0.5 0.1
0.8125 0.5 0.1
0.7875 0.5 0.1
0.7625 0.5 0.1
0.7375 0.5 0.1
0.7125 0.5 0.1
0.6875 0.5 0.1
0.6625 0.5 0.1
0.6375 0.5 0.1
0.6125 0.5 0.1
0.5875 0.5 0.1
0.5625 0.5 0.1
0.5375 0.5 0.1
0.5125 0.5 0.1
0.4875 0.5 0.1
0.4625 0.5 0.1
0.4375 0.5 0.1
0.4125 0.5 0.1
0.3875 0.5 0.1
0.3625 0.5 0.1
0.3375 0.5 0.1
0.3125 0.5 0.1
0.2875 0.5 0.1
0.2625 0.5 0.1
0.2375 0.5 0.1
0.2125 0.5 0.1
0.1875 0.5 0.1
0.1625 0.5 0.1
0.1375 0.5 0.1
0.1125 0.5 0.1
0.0875 0.5 0.1
0.0625 0.5 0.1
0.0375 0.5 0.1
0.0125 0.5 0.1
0 0.475 0.1
0 0.45 0.1
0 0.425 0.1
0 0.4 0.1
0 0.375 0.1
0 0.35 0.1
0 0.325 0.1
0 0.3 0.1
0 0.275 0.1
0 0.25 0.1
0 0.225 0.1
0 0.2 0.1
0 0.175 0.1
0 0.15 0.1
0 0.125 0.1
0 0.1 0.1
0 0.075 0.1
0 0.05 0.1
0 0.025 0.1
0 0.4875 0.1
0 0.4625 0.1
0 0.4375 0.1
0 0.4125 0.1
0 0.3875 0.1
0 0.3625 0.1
0 0.3375 0.1
0 0.3125 0.1
0 0.2875 0.1
0 0.2625 0.1
0 0.2375 0.1
0 0.2125 0.1
0 0.1875 0.1
0 0.1625 0.1
0 0.1375 0.1
0 0.1125 0.1
0 0.0875 0.1
0 0.0625 0.1
0 0.0375 0.1
0 0.0125 0.1
0.975 0.475 0.1
0.975 0.45 0.1
0.975 0.425 0.1
0.975 0.4 0.1
0.975 0.375 0.1
0.975 0.35 0.1
0.975 0.325 0.1
0.975 0.3 0.1
0.975 0.275 0.1
0.975 0.25 0.1
0.975 0.225 0.1
0.975 0.2 0.1
0.975 0.175 0.1
0.975 0.15 0.1
0.975 0.125 0.1
0.975 0.1 0.1
0.975 0.075 0.1
0.975 0.05 0.1
0.975 0.025 0.1
0.95 0.475 0.1
0.95 0.45 0.1
0.95 0.425 0.1
0.95 0.4 0.1
0.95 0.375 0.1
0.95 0.35 0.1
0.95 0.325 0.1
0.95 0.3 0.1
0.95 0.275 0.1
0.95 0.25 0.1
0.95 0.225 0.1
0.95 0.2 0.1
0.95 0.175 0.1
0.95 0.15 0.1
0.95 0.125 0.1
0.95 0.1 0.1
0.95 0.075 0.1
0.95 0.05 0.1
0.95 0.025 0.1
0.925 0.475 0.1
0.925 0.45 0.1
0.925 0.425 0.1
0.925 0.4 0.1
0.925 0.375 0.1
0.925 0.35 0.1
0.925 0.325 0.1
0.925 0.3 0.1
0.925 0.275 0.1
0.925 0.25 0.1
0.925 0.225 0.1
0.925 0.2 0.1
0.925 0.175 0.1
0.925 0.15 0.1
0.925 0.125 0.1
0.925 0.1 0.1
0.925 0.075 0.1
0.925 0.05 0.1
0.925 0.025 0.1
0.9 0.475 0.1
0.9 0.45 0.1
0.9 0.425 0.1
0.9 0.4 0.1
0.9 0.375 0.1
0.9 0.35 0.1
0.9 0.325 0.1
0.9 0.3 0.1
0.9 0.275 0.1
0.9 0.25 0.1
0.9 0.225 0.1
0.9 0.2 0.1
0.9 0.175 0.1
0.9 0.15 0.1
0.9 0.125 0.1
0.9 0.1 0.1
0.9 0.075 0.1
0.9 0.05 0.1
0.9 0.025 0.1
0.875 0.475 0.1
0.875 0.45 0.1
0.875 0.425 0.1
0.875 0.4 0.1
0.875 0.375 0.1
0.875 0.35 0.1
0.875 0.325 0.1
0.875 0.3 0.1
0.875 0.275 0.1
0.875 0.25 0.1
0.875 0.225 0.1
0.875 0.2 0.1
0.875 0.175 0.1
0.875 0.15 0.1
0.875 0.125 0.1
0.875 0.1 0.1
0.875 0.075 0.1
0.875 0.05 0.1
0.875 0.025 0.1
0.85 0.475 0.1
0.85 0.45 0.1
0.85 0.425 0.1
0.85 0.4 0.1
0.85 0.375 0.1
0.85 0.35 0.1
0.85 0.325 0.1
0.85 0.3 0.1
0.85 0.275 0.1
0.85 0.25 0.1
0.85 0.225 0.1
0.85 0.2 0.1
0.85 0.175 0.1
0.85 0.15 0.1
0.85 0.125 0.1
0.85 0.1 0.1
0.85 0.075 0.1
0.85 0.05 0.1
0.85 0.025 0.1
0.825 0.475 0.1
0.825 0.45 0.1
0.825 0.425 0.1
0.825 0.4 0.1
0.825 0.375 0.1
0.825 0.35 0.1
0.825 0.325 0.1
0.825 0.3 0.1
0.825 0.275 0.1
0.825 0.25 0.1
0.825 0.225 0.1
0.825 0.2 0.1
0.825 0.175 0.1
0.825 0.15 0.1
0.825 0.125 0.1
0.825 0.1 0.1
0.825 0.075 0.1
0.825 0.05 0.1
0.825 0.025 0.1
0.8 0.475 0.1
0.8 0.45 0.1
0.8 0.425 0.1
0.8 0.4 0.1
0.8 0.375 0.1
0.8 0.35 0.1
0.8 0.325 0.1
0.8 0.3 0.1
0.8 0.275 0.1
0.8 0.25 0.1
0.8 0.225 0.1
0.8 0.2 0.1
0.8 0.175 0.1
0.8 0.15 0.1
0.8 0.125 0.1
0.8 0.1 0.1
0.8 0.075 0.1
0.8 0.05 0.1
0.8 0.025 0.1
0.775 0.475 0.1
0.775 0.45 0.1
0.775 0.425 0.1
0.775 0.4 0.1
0.775 0.375 0.1
0.775 0.35 0.1
0.775 0.325 0.1
0.775 0.3 0.1
0.775 0.275 0.1
0.775 0.25 0.1
0.775 0.225 0.1
0.775 0.2 0.1
0.775 0.175 0.1
0.775 0.15 0.1
0.775 0.125 0.1
0.775 0.1 0.1
0.775 0.075 0.1
0.775 0.05 0.1
0.775 0.025 0.1
0.75 0.475 0.1
0.75 0.45 0.1
0.75 0.425 0.1
0.75 0.4 0.1
0.75 0.375 0.1
0.75 0.35 0.1
0.75 0.325 0.1
0.75 0.3 0.1
0.75 0.275 0.1
0.75 0.25 0.1
0.75 0.225 0.1
0.75 0.2 0.1
0.75 0.175 0.1
0.75 0.15 0.1
0.75 0.125 0.1
0.75 0.1 0.1
0.75 0.075 0.1
0.75 0.05 0.1
0.75 0.025 0.1
0.725 0.475 0.1
0.725 0.45 0.1
0.725 0.425 0.1
0.725 0.4 0.1
0.725 0.375 0.1
0.725 0.35 0.1
0.725 0.325 0.1
0.725 0.3 0.1
0.725 0.275 0.1
0.725 0.25 0.1
0.725 0.225 0.1
0.725 0.2 0.1
0.725 0.175 0.1
0.725 0.15 0.1
0.725 0.125 0.1
0.725 0.1 0.1
0.725 0.075 0.1
0.725 0.05 0.1
0.725 0.025 0.1
0.7 0.475 0.1
0.7 0.45 0.1
0.7 0.425 0.1
0.7 0.4 0.1
0.7 0.375 0.1
0.7 0.35 0.1
0.7 0.325 0.1
0.7 0.3 0.1
0.7 0.275 0.1
0.7 0.25 0.1
0.7 0.225 0.1
0.7 0.2 0.1
0.7 0.175 0.1
0.7 0.15 0.1
0.7 0.125 0.1
0.7 0.1 0.1
0.7 0.075 0.1
0.7 0.05 0.1
0.7 0.025 0.1
0.675 0.475 0.1
0.675 0.45 0.1
0.675 0.425 0.1
0.675 0.4 0.1
0.675 0.375 0.1
0.675 0.35 0.1
0.675 0.325 0.1
0.675 0.3 0.1
0.675 0.275 0.1
0.675 0.25 0.1
0.675 0.225 0.1
0.675 0.2 0.1
0.675 0.175 0.1
0.675 0.15 0.1
0.675 0.125 0.1
0.675 0.1 0.1
0.675 0.075 0.1
0.675 0.05 0.1
0.675 0.025 0.1
0.65 0.475 0.1
0.65 0.45 0.1
0.65 0.425 0.1
0.65 0.4 0.1
0.65 0.375 0.1
0.65 0.35 0.1
0.65 0.325 0.1
0.65 0.3 0.1
0.65 0.275 0.1
0.65 0.25 0.1
0.65 0.225 0.1
0.65 0.2 0.1
0.65 0.175 0.1
0.65 0.15 0.1
0.65 0.125 0.1
0.65 0.1 0.1
0.65 0.075 0.1
0.65 0.05 0.1
0.65 0.025 0.1
0.625 0.475 0.1
0.625 0.45 0.1
0.625 0.425 0.1
0.625 0.4 0.1
0.625 0.375 0.1
0.625 0.35 0.1
0.625 0.325 0.1
0.625 0.3 0.1
0.625 0.275 0.1
0.625 0.25 0.1
0.625 0.225 0.1
0.625 0.2 0.1
0.625 0.175 0.1
0.625 0.15 0.1
0.625 0.125 0.1
0.625 0.1 0.1
0.625 0.075 0.1
0.625 0.05 0.1
0.625 0.025 0.1
0.6 0.475 0.1
0.6 0.45 0.1
0.6 0.425 0.1
0.6 0.4 0.1
0.6 0.375 0.1
0.6 0.35 0.1
0.6 0.325 0.1
0.6 0.3 0.1
0.6 0.275 0.1
0.6 0.25 0.1
0.6 0.225 0.1
0.6 0.2 0.1
0.6 0.175 0.1
0.6 0.15 0.1
0.6 0.125 0.1
0.6 0.1 0.1
0.6 0.075 0.1
0.6 0.05 0.1
0.6 0.025 0.1
0.575 0.475 0.1
0.575 0.45 0.1
0.575 0.425 0.1
0.575 0.4 0.1
0.575 0.375 0.1
0.575 0.35 0.1
0.575 0.325 0.1
0.575 0.3 0.1
0.575 0.275 0.1
0.575 0.25 0.1
0.575 0.225 0.1
0.575 0.2 0.1
0.575 0.175 0.1
0.575 0.15 0.1
0.575 0.125 0.1
0.575 0.1 0.1
0.575 0.075 0.1
0.575 0.05 0.1
0.575 0.025 0.1
0.55 0.475 0.1
0.55 0.45 0.1
0.55 0.425 0.1
0.55 0.4 0.1
0.55 0.375 0.1
0.55 0.35 0.1
0.55 0.325 0.1
0.55 0.3 0.1
0.55 0.275 0.1
0.55 0.25 0.1
0.55 0.225 0.1
0.55 0.2 0.1
0.55 0.175 0.1
0.55 0.15 0.1
0.55 0.125 0.1
0.55 0.1 0.1
0.55 0.075 0.1
0.55 0.05 0.1
0.55 0.025 0.1
0.525 0.475 0.1
0.525 0.45 0.1
0.525 0.425 0.1
0.525 0.4 0.1
0.525 0.375 0.1
0.525 0.35 0.1
0.525 0.325 0.1
0.525 0.3 0.1
0.525 0.275 0.1
0.525 0.25 0.1
0.525 0.225 0.1
0.525 0.2 0.1
0.525 0.175 0.1
0.525 0.15 0.1
0.525 0.125 0.1
0.525 0.1 0.1
0.525 0.075 0.1
0.525 0.05 0.1
0.525 0.025 0.1
0.5 0.475 0.1
0.5 0.45 0.1
0.5 0.425 0.1
0.5 0.4 0.1
0.5 0.375 0.1
0.5 0.35 0.1
0.5 0.325 0.1
0.5 0.3 0.1
0.5 0.275 0.1
0.5 0.25 0.1
0.5 0.225 0.1
0.5 0.2 0.1
0.5 0.175 0.1
0.5 0.15 0.1
0.5 0.125 0.1
0.5 0.1 0.1
0.5 0.075 0.1
0.5 0.05 0.1
0.5 0.025 0.1
0.475 0.475 0.1
0.475 0.45 0.1
0.475 0.425 0.1
0.475 0.4 0.1
0.475 0.375 0.1
0.475 0.35 0.1
0.475 0.325 0.1
0.475 0.3 0.1
0.475 0.275 0.1
0.475 0.25 0.1
0.475 0.225 0.1
0.475 0.2 0.1
0.475 0.175 0.1
0.475 0.15 0.1
0.475 0.125 0.1
0.475 0.1 0.1
0.475 0.075 0.1
0.475 0.05 0.1
0.475 0.025 0.1
0.45 0.475 0.1
0.45 0.45 0.1
0.45 0.425 0.1
0.45 0.4 0.1
0.45 0.375 0.1
0.45 0.35 0.1
0.45 0.325 0.1
0.45 0.3 0.1
0.45 0.275 0.1
0.45 0.25 0.1
0.45 0.225 0.1
0.45 0.2 0.1
0.45 0.175 0.1
0.45 0.15 0.1
0.45 0.125 0.1
0.45 0.1 0.1
0.45 0.075 0.1
0.45 0.05 0.1
0.45 0.025 0.1
0.425 0.475 0.1
0.425 0.45 0.1
0.425 0.425 0.1
0.425 0.4 0.1
0.425 0.375 0.1
0.425 0.35 0.1
0.425 0.325 0.1
0.425 0.3 0.1
0.425 0.275 0.1
0.425 0.25 0.1
0.425 0.225 0.1
0.425 0.2 0.1
0.425 0.175 0.1
0.425 0.15 0.1
0.425 0.125 0.1
0.425 0.1 0.1
0.425 0.075 0.1
0.425 0.05 0.1
0.425 0.025 0.1
0.4 0.475 0.1
0.4 0.45 0.1
0.4 0.425 0.1
0.4 0.4 0.1
0.4 0.375 0.1
0.4 0.35 0.1
0.4 0.325 0.1
0.4 0.3 0.1
0.4 0.275 0.1
0.4 0.25 0.1
0.4 0.225 0.1
0.4 0.2 0.1
0.4 0.175 0.1
0.4 0.15 0.1
0.4 0.125 0.1
0.4 0.1 0.1
0.4 0.075 0.1
0.4 0.05 0.1
0.4 0.025 0.1
0.375 0.475 0.1
0.375 0.45 0.1
0.375 0.425 0.1
0.375 0.4 0.1
0.375 0.375 0.1
[...]
    <PointData>
      <DataArray type="Float64" NumberOfComponents="3" Name="Velocity" format="ascii">
0 0 0
0 0 0
0 0 0
0 0 0
0 0 0
0 0 0
0 0 0
0 0 0
0 0 0
0 0 0
0 0 0
0 0 0
0 0 0
0 0 0
0 0 0
0 0 0
0 0 0
0 0 0
0 0 0
0 0 0
0 0 0
0 0 0
0 0 0
0 0 0
0 0 0
0 0 0
0 0 0
0 0 0
0 0 0
0 0 0
0 0 0
0 0 0
0 0 0
0 0 0
0 0 0
0 0 0
0 0 0
0 0 0
0 0 0
0 0 0
0 0 0
0 0 0
0 0 0
0 0 0
0 0 0
0 0 0
0 0 0
0 0 0
0 0 0
0 0 0
0 0 0
0 0 0
0 0 0
0 0 0
0 0 0
0 0 0
0 0 0
0 0 0
0 0 0
0 0 0
0 0 0
0 0 0
0 0 0
0 0 0
0 0 0
0 0 0
0 0 0
0 0 0
0 0 0
0 0 0
0 0 0
0 0 0
0 0 0
0 0 0
0 0 0
0 0 0
0 0 0
0 0 0
0 0 0
0 0 0
0 0 0
0 0 0
0 0 0
0 0 0
0 0 0
0 0 0
0 0 0
0 0 0
0 0 0
0 0 0
0 0 0
0 0 0
0 0 0
0 0 0
0 0 0
0 0 0
0 0 0
0 0 0
0 0 0
0 0 0
0 0 0
0 0 0
0 0 0
0 0 0
0 0 0
0 0 0
0 0 0
0 0 0
0 0 0
0 0 0
0 0 0
0 0 0
0 0 0
0 0 0
0 0 0
0 0 0
0 0 0
0 0 0
0 0 0
0 0 0
0 0 0
0 0 0
-0.0028311 -0.0422093 0
-0.00996477 -0.0774883 0
-0.0204368 -0.10671 0
-0.0325684 -0.130473 0
-0.0464239 -0.148965 0
-0.0615826 -0.16179 0
-0.076693 -0.169562 0
-0.0915802 -0.172419 0
-0.105914 -0.170788 0
-0.119086 -0.165506 0
-0.131021 -0.156619 0
-0.141548 -0.144768 0
-0.150545 -0.130281 0
-0.15822 -0.113603 0
-0.16449 -0.0955377 0
-0.169265 -0.0761342 0
-0.172703 -0.0558941 0
-0.174711 -0.0352204 0
-0.17541 -0.0143263 0
-0.174879 0.00622234 0
-0.173128 0.0264477 0
-0.170237 0.0463018 0
-0.166182 0.065368 0
-0.160895 0.0835815 0
-0.154448 0.10063 0
-0.146843 0.116231 0
-0.13814 0.130296 0
-0.128403 0.142259 0
-0.117587 0.151882 0
-0.105849 0.158857 0
-0.0933826 0.162723 0
-0.0801966 0.163393 0
-0.0667121 0.160256 0
-0.0534425 0.152744 0
-0.0408105 0.140149 0
-0.0288467 0.122075 0
-0.0181525 0.0987978 0
-0.00920674 0.0702769 0
-0.00312524 0.0363405 0
-0.00124277 -0.0206002 0
-0.00592217 -0.0606387 0
-0.0149877 -0.0928415 0
-0.0263561 -0.119317 0
-0.0393538 -0.140459 0
-0.0540359 -0.156176 0
-0.06924 -0.166443 0
-0.0842624 -0.171765 0
-0.0989464 -0.172291 0
-0.112719 -0.168801 0
-0.125269 -0.161645 0
-0.136514 -0.151184 0
-0.146272 -0.137999 0
-0.154585 -0.122311 0
-0.161576 -0.104881 0
-0.167086 -0.0861382 0
-0.171193 -0.0662291 0
-0.173921 -0.0457752 0
-0.175257 -0.0249176 0
-0.175322 -0.00408851 0
-0.174165 0.0163101 0
-0.171833 0.0364171 0
-0.168365 0.0559175 0
-0.163683 0.0745878 0
-0.157803 0.0922945 0
-0.150771 0.108638 0
-0.142594 0.123538 0
-0.133371 0.136606 0
-0.123082 0.147424 0
-0.11177 0.155799 0
-0.0996709 0.161227 0
-0.0868227 0.163513 0
-0.073425 0.16237 0
-0.0600067 0.15711 0
-0.0470389 0.147181 0
-0.034678 0.131821 0
-0.0232836 0.111121 0
-0.0133681 0.0852518 0
-0.00569319 0.0540795 0
-0.00294306 0.0170493 0
0 0 0
0 0 0
0 0 0
0 0 0
0 0 0
0 0 0
0 0 0
0 0 0
0 0 0
0 0 0
0 0 0
0 0 0
0 0 0
0 0 0
0 0 0
0 0 0
0 0 0
0 0 0
0 0 0
0 0 0
0 0 0
0 0 0
0 0 0
0 0 0
0 0 0
0 0 0
0 0 0
0 0 0
0 0 0
0 0 0
0 0 0
0 0 0
0 0 0
0 0 0
0 0 0
0 0 0
0 0 0
0 0 0
0 0 0
-0.00447145 -0.0361931 0
-0.00440106 -0.0312256 0
-0.00378851 -0.0262865 0
-0.00249881 -0.0223139 0
-0.00188037 -0.0194157 0
-0.00163488 -0.0167655 0
-0.00148692 -0.0142904 0
-0.0013619 -0.0119962 0
-0.00124185 -0.00988713 0
-0.00112213 -0.00796523 0
-0.00100073 -0.00623243 0
-0.000875983 -0.00469233 0
-0.000746152 -0.00335109 0
-0.000609752 -0.00221768 0
-0.000466318 -0.00130333 0
-0.000317982 -0.000620238 0
-0.000170843 -0.000179266 0
-2.88957e-05 2.55626e-05 0
6.0406e-05 5.25956e-05 0
-0.010781 -0.0667268 0
-0.0107107 -0.0580406 0
-0.00965553 -0.0504348 0
-0.00759745 -0.0438171 0
-0.00629315 -0.0381 0
-0.00559586 -0.0328312 0
-0.00509513 -0.0280134 0
-0.00465805 -0.0236069 0
-0.00424364 -0.0195852 0
-0.0038367 -0.0159332 0
-0.00342894 -0.0126442 0
-0.00301379 -0.00971847 0
-0.00258528 -0.00716176 0
-0.00213854 -0.00498455 0
-0.00167158 -0.0032002 0
-0.0011886 -0.00182165 0
-0.000705794 -0.000854394 0
-0.000264675 -0.000280281 0
3.26811e-05 -3.70686e-05 0
-0.0197644 -0.0928654 0
-0.0190366 -0.0815142 0
-0.0174355 -0.071654 0
-0.0149948 -0.0629442 0
-0.0131172 -0.0550127 0
-0.0117881 -0.047543 0
-0.0107242 -0.04069 0
-0.00978423 -0.0344333 0
-0.00890391 -0.0287334 0
-0.00805067 -0.0235613 0
-0.00720452 -0.0189007 0
-0.00635047 -0.0147454 0
-0.00547616 -0.0110973 0
-0.00457233 -0.00796404 0
-0.00363562 -0.00535611 0
-0.00267417 -0.00328303 0
-0.00171798 -0.00174638 0
-0.000838124 -0.000729389 0
-0.000177964 -0.000184717 0
-0.0309934 -0.114365 0
-0.0293781 -0.101113 0
-0.0271017 -0.0894563 0
-0.0242637 -0.0790288 0
-0.0218849 -0.0694555 0
-0.0198492 -0.0603305 0
-0.0180927 -0.0518689 0
-0.0165089 -0.0440989 0
-0.0150247 -0.0369985 0
-0.0135932 -0.0305413 0
-0.0121822 -0.0247083 0
-0.0107673 -0.0194897 0
-0.0093289 -0.0148832 0
-0.00785311 -0.0108928 0
-0.00633502 -0.0075255 0
-0.00478605 -0.00478854 0
-0.00324616 -0.00268463 0
-0.00180372 -0.00120631 0
-0.000625328 -0.000328935 0
-0.0438732 -0.131119 0
-0.0413011 -0.116603 0
-0.0383604 -0.103682 0
-0.0350229 -0.0919306 0
-0.0320612 -0.0811868 0
-0.02932 -0.0708866 0
-0.0268306 -0.0612388 0
-0.024529 -0.0523109 0
-0.0223519 -0.0441085 0
-0.0202489 -0.0366185 0
-0.0181804 -0.029827 0
-0.0161144 -0.0237242 0
-0.014025 -0.0183063 0
-0.0118932 -0.013575 0
-0.00971188 -0.00953581 0
-0.00749262 -0.00619672 0
-0.00527859 -0.00356651 0
-0.00316267 -0.00165352 0
-0.0013125 -0.000464676 0
-0.0577682 -0.143166 0
-0.0542411 -0.127996 0
-0.0507227 -0.114351 0
-0.0468757 -0.101774 0
-0.0432269 -0.0902158 0
-0.0397932 -0.079099 0
-0.0365711 -0.0686268 0
-0.0335256 -0.0588755 0
-0.0306112 -0.0498674 0
-0.0277827 -0.0416029 0
-0.024999 -0.0340754 0
-0.0222237 -0.0272788 0
-0.0194257 -0.0212103 0
-0.0165816 -0.0158719 0
-0.0136798 -0.0112703 0
-0.0107283 -0.00741743 0
-0.00776583 -0.00433188 0
-0.00487681 -0.00204094 0
-0.00221058 -0.000583021 0
-0.0720648 -0.150668 0
-0.0676836 -0.13534 0
-0.0636635 -0.121439 0
-0.0593814 -0.108523 0
-0.0550509 -0.0965193 0
-0.0509256 -0.084918 0
-0.0469799 -0.0739469 0
-0.0431914 -0.0636818 0
-0.0395286 -0.0541524 0
-0.035954 -0.0453682 0
-0.0324287 -0.0373299 0
-0.0289148 -0.0300367 0
-0.0253775 -0.023489 0
-0.0217885 -0.0176914 0
-0.0181302 -0.0126541 0
-0.0144029 -0.00839566 0
-0.0106335 -0.00494609 0
-0.00688771 -0.00235161 0
-0.00328296 -0.00067808 0
-0.0862609 -0.153745 0
-0.0811618 -0.138711 0
-0.0767321 -0.124972 0
-0.0720955 -0.112115 0
-0.0671679 -0.100061 0
-0.0623851 -0.0883261 0
-0.0577443 -0.0771705 0
-0.0532354 -0.0666838 0
-0.0488387 -0.0569033 0
-0.0445246 -0.0478458 0
-0.0402579 -0.0395193 0
-0.036001 -0.0319286 0
-0.0317165 -0.0250788 0
-0.0273709 -0.0189787 0
-0.0229391 -0.0136441 0
-0.0184096 -0.00910095 0
-0.0137922 -0.00539096 0
-0.00912607 -0.00257713 0
-0.00448827 -0.000747279 0
-0.0999133 -0.152867 0
-0.0942651 -0.138472 0
-0.0895545 -0.125217 0
-0.084651 -0.112726 0
-0.0792244 -0.100929 0
-0.0738533 -0.0893717 0
-0.0685697 -0.0783259 0
-0.0633841 -0.0678912 0
-0.0582892 -0.0581136 0
-0.053264 -0.0490175 0
-0.0482779 -0.040618 0
-0.0432945 -0.0329257 0
-0.0382743 -0.0259514 0
-0.0331787 -0.0197094 0
-0.0279732 -0.0142211 0
-0.0226322 -0.00952052 0
-0.0171443 -0.00565956 0
-0.0115173 -0.00271478 0
-0.005783 -0.000789951 0
-0.112731 -0.148504 0
-0.10671 -0.134952 0
-0.101852 -0.122423 0
-0.096775 -0.110542 0
-0.0909267 -0.0992728 0
-0.0850425 -0.088169 0
-0.0791853 -0.0774974 0
-0.073384 -0.0673641 0
-0.0676442 -0.0578234 0
-0.0619536 -0.0489076 0
-0.0562874 -0.0406385 0
-0.0506108 -0.0330332 0
-0.044883 -0.026108 0
-0.0390596 -0.0198826 0
-0.0330961 -0.0143846 0
-0.0269511 -0.00965461 0
-0.0205895 -0.00575293 0
-0.0139854 -0.00276564 0
-0.0071236 -0.000806585 0
-0.124501 -0.140898 0
-0.118265 -0.128392 0
-0.113374 -0.116805 0
-0.108198 -0.10579 0
-0.102006 -0.0952998 0
-0.0956979 -0.0848872 0
-0.0893495 -0.0748178 0
-0.0830065 -0.0652053 0
-0.0766875 -0.0561114 0
-0.0703905 -0.0475753 0
-0.0640965 -0.0396252 0
-0.0577736 -0.0322838 0
-0.0513795 -0.0255727 0
-0.0448643 -0.0195165 0
-0.0381732 -0.014148 0
-0.0312479 -0.00951324 0
-0.024029 -0.00567789 0
-0.0164562 -0.00273353 0
-0.008468 -0.000798432 0
-0.135038 -0.130617 0
-0.128747 -0.119284 0
-0.123913 -0.10879 0
-0.118696 -0.098817 0
-0.112251 -0.0892745 0
-0.105611 -0.0797345 0
-0.0988567 -0.0704549 0
-0.092051 -0.0615502 0
-0.0852261 -0.0530864 0
-0.0783899 -0.0451077 0
-0.0715302 -0.0376472 0
-0.064618 -0.0307319 0
-0.0576099 -0.0243879 0
-0.0504509 -0.0186437 0
-0.0430755 -0.0135359 0
-0.0354091 -0.00911372 0
-0.0273682 -0.00544552 0
-0.0188592 -0.00262417 0
-0.0097767 -0.000767288 0
-0.144175 -0.117953 0
-0.138011 -0.107991 0
-0.133327 -0.0987194 0
-0.128117 -0.0899123 0
-0.121506 -0.0814552 0
-0.114614 -0.0729344 0
-0.107536 -0.0645969 0
-0.100347 -0.056556 0
-0.0930916 -0.0488789 0
-0.0857882 -0.0416124 0
-0.0784309 -0.0347921 0
-0.0709937 -0.0284484 0
-0.0634326 -0.0226099 0
-0.0556876 -0.0173079 0
-0.0476833 -0.0125807 0
-0.0393294 -0.00847874 0
-0.0305196 -0.00507 0
-0.0211296 -0.00244473 0
-0.0110135 -0.000715334 0
-0.151841 -0.103209 0
-0.145897 -0.0947769 0
-0.141489 -0.0868991 0
-0.136338 -0.0793709 0
-0.129638 -0.0721035 0
-0.122572 -0.0647157 0
-0.115246 -0.0574422 0
-0.10775 -0.050393 0
-0.10014 -0.0436338 0
-0.0924428 -0.0372111 0
-0.0846596 -0.0311614 0
-0.076767 -0.025516 0
-0.0687206 -0.020305 0
-0.0604558 -0.0155604 0
-0.0518881 -0.0113206 0
-0.0429132 -0.00763485 0
-0.0334041 -0.0045677 0
-0.0232091 -0.00220336 0
-0.0121463 -0.000645022 0
-0.158083 -0.0869876 0
-0.152366 -0.0801076 0
-0.148297 -0.0736958 0
-0.143285 -0.067505 0
-0.136559 -0.061482 0
-0.129381 -0.0553075 0
-0.121875 -0.0491931 0
-0.114142 -0.0432384 0
-0.10625 -0.0375044 0
-0.0982331 -0.0320349 0
-0.0900973 -0.026865 0
-0.0818222 -0.0220257 0
-0.073363 -0.0175463 0
-0.0646513 -0.0134583 0
-0.0555949 -0.00979803 0
-0.0460768 -0.00661121 0
-0.0359527 -0.00395649 0
-0.0250468 -0.00190888 0
-0.013147 -0.000558986 0
-0.162952 -0.0695486 0
-0.157465 -0.064281 0
-0.153721 -0.0593482 0
-0.148917 -0.0545447 0
-0.142203 -0.0498264 0
-0.134963 -0.0449322 0
-0.127334 -0.0400514 0
-0.11943 -0.0352722 0
-0.111324 -0.0306485 0
-0.103059 -0.0262198 0
-0.0946447 -0.0220186 0
-0.086062 -0.0180733 0
-0.0772663 -0.0144115 0
-0.068186 -0.011062 0
-0.0587227 -0.00805768 0
-0.0487492 -0.00543859 0
-0.0381067 -0.00325512 0
-0.0266 -0.00157049 0
-0.0139923 -0.000459956 0
-0.166506 -0.0512638 0
-0.161254 -0.0476286 0
-0.157791 -0.044159 0
-0.153183 -0.0407509 0
-0.146512 -0.0373757 0
-0.139252 -0.0338107 0
-0.131554 -0.0302187 0
-0.123538 -0.0266749 0
-0.115286 -0.0232256 0
-0.106843 -0.0199047 0
-0.0982228 -0.0167402 0
-0.0894083 -0.0137574 0
-0.0803548 -0.0109803 0
-0.0709885 -0.00843386 0
-0.0612061 -0.0061457 0
-0.0508728 -0.00414863 0
-0.0398187 -0.00248281 0
-0.027834 -0.00119758 0
-0.0146632 -0.000350705 0
-0.168797 -0.0324972 0
-0.163782 -0.0304455 0
-0.160536 -0.0284189 0
-0.156073 -0.0263992 0
-0.149453 -0.0243744 0
-0.142207 -0.022164 0
-0.134486 -0.019895 0
-0.126416 -0.0176266 0
-0.11808 -0.0153953 0
-0.109527 -0.0132284 0
-0.100772 -0.011149 0
-0.0918023 -0.00917746 0
-0.0825713 -0.00733349 0
-0.0730043 -0.00563682 0
-0.062995 -0.00410868 0
-0.0524036 -0.00277319 0
-0.0410527 -0.00165884 0
-0.0287228 -0.000799543 0
-0.0151458 -0.000233998 0
-0.169858 -0.0134291 0
-0.165041 -0.0129056 0
-0.161927 -0.0123259 0
-0.157567 -0.0117126 0
-0.151008 -0.0110518 0
-0.143805 -0.0102071 0
-0.136103 -0.0092768 0
-0.128029 -0.00830392 0
-0.119669 -0.00731472 0
-0.111071 -0.00632884 0
-0.102254 -0.00536304 0
-0.0932041 -0.0044325 0
-0.0838766 -0.00355145 0
-0.0741961 -0.00273366 0
-0.0640551 -0.001993 0
-0.0533114 -0.00134396 0
-0.0417841 -0.000802372 0
-0.0292485 -0.000385672 0
-0.0154304 -0.000112556 0
-0.169653 0.00556984 0
-0.16497 0.00465452 0
-0.161929 0.00381745 0
-0.157653 0.00305025 0
-0.151172 0.00236607 0
-0.144039 0.00185281 0
-0.136395 0.00144591 0
-0.128366 0.00112044 0
-0.120037 0.000861784 0
-0.111458 0.000658686 0
-0.102648 0.000501103 0
-0.0935929 0.000379789 0
-0.0842498 0.000286385 0
-0.0745438 0.000213625 0
-0.0643678 0.00015557 0
-0.0535799 0.000107828 0
-0.0419995 6.77971e-05 0
-0.0294018 3.4929e-05 0
-0.0155121 1.09609e-05 0
-0.168136 0.0243134 0
-0.163528 0.0220043 0
-0.160557 0.0197893 0
-0.156357 0.0176795 0
-0.149963 0.0156735 0
-0.142921 0.0138194 0
-0.135369 0.0120898 0
-0.127429 0.0104789 0
-0.119186 0.00898378 0
-0.110687 0.00760169 0
-0.101952 0.00632935 0
-0.0929663 0.00516361 0
-0.0836881 0.00410211 0
-0.0740441 0.00314427 0
-0.0639299 0.00229217 0
-0.0532064 0.00155164 0
-0.0416969 0.000933282 0
-0.0291812 0.000453386 0
-0.0153902 0.000133968 0
-0.165294 0.042678 0
-0.160718 0.0390106 0
-0.15782 0.0354389 0
-0.153688 0.0319921 0
-0.147396 0.028674 0
-0.140469 0.0255008 0
-0.133045 0.0224754 0
-0.12524 0.0196074 0
-0.117136 0.0169042 0
-0.108778 0.0143708 0
-0.100184 0.0120102 0
-0.0913406 0.00982538 0
-0.0822062 0.00781966 0
-0.0727107 0.00599894 0
-0.0627536 0.00437305 0
-0.0522016 0.00295769 0
-0.0408851 0.00177619 0
-0.0285934 0.000861077 0
-0.0150686 0.000253959 0
-0.161191 0.0603024 0
-0.156626 0.0553481 0
-0.153749 0.0504842 0
-0.149674 0.0457411 0
-0.143501 0.0411524 0
-0.136719 0.036702 0
-0.12946 0.0324247 0
-0.121837 0.0283449 0
-0.113925 0.0244792 0
-0.105768 0.0208395 0
-0.0973805 0.0174351 0
-0.0887498 0.014274 0
-0.0798363 0.011365 0
-0.0705733 0.00871989 0
-0.0608659 0.00635566 0
-0.0505889 0.00429704 0
-0.0395836 0.00257915 0
-0.0276527 0.00124963 0
-0.014555 0.000368504 0
-0.155872 0.0770512 0
-0.151317 0.0708147 0
-0.148404 0.0646871 0
-0.14437 0.0586945 0
-0.138331 0.0528925 0
-0.131724 0.0472272 0
-0.12467 0.0417611 0
-0.117275 0.0365328 0
-0.109609 0.0315678 0
-0.101711 0.0268848 0
-0.0935942 0.0224982 0
-0.0852456 0.0184208 0
-0.0766275 0.0146662 0
-0.0676777 0.0112511 0
-0.0583084 0.00819869 0
-0.0484049 0.00554159 0
-0.0378222 0.00332527 0
-0.0263808 0.00161092 0
-0.0138615 0.000475244 0
-0.149359 0.0926653 0
-0.144817 0.0851641 0
-0.141833 0.0777985 0
-0.137841 0.0706219 0
-0.131958 0.063685 0
-0.125557 0.0568856 0
-0.118749 0.0503118 0
-0.111629 0.044016 0
-0.104261 0.0380328 0
-0.0966798 0.0323867 0
-0.0888962 0.0270969 0
-0.0808964 0.0221802 0
-0.072645 0.0176537 0
-0.0640848 0.0135384 0
-0.0551366 0.00986219 0
-0.0456981 0.00666411 0
-0.0356408 0.0039982 0
-0.0248068 0.00193705 0
-0.0130039 0.000571878 0
-0.141708 0.106869 0
-0.137164 0.0981371 0
-0.134112 0.0895852 0
-0.130186 0.0813116 0
-0.124475 0.0733327 0
-0.118309 0.0654938 0
-0.111785 0.0579089 0
-0.104987 0.0506439 0
-0.0979704 0.0437407 0
-0.090764 0.0372292 0
-0.0833742 0.0311323 0
-0.0757871 0.0254694 0
-0.0679695 0.0202606 0
-0.0598702 0.0155296 0
-0.0514194 0.0113076 0
-0.0425286 0.00763831 0
-0.0330887 0.00458204 0
-0.0229667 0.00222033 0
-0.0120019 0.000656161 0
-0.132943 0.119509 0
-0.128404 0.109561 0
-0.125323 0.0998883 0
-0.121488 0.0905874 0
-0.115975 0.0816476 0
-0.110081 0.0728728 0
-0.103885 0.0643893 0
-0.0974583 0.0562702 0
-0.0908459 0.0485631 0
-0.0840697 0.0413011 0
-0.077132 0.0345095 0
-0.070018 0.0282097 0
-0.0626969 0.0224232 0
-0.0551233 0.0171749 0
-0.0472381 0.0124981 0
-0.0389679 0.00843892 0
-0.0302247 0.00506149 0
-0.0209034 0.00245329 0
-0.0108788 0.000725889 0
-0.12313 0.130156 0
-0.118642 0.119099 0
-0.115578 0.108424 0
-0.111845 0.0982065 0
-0.106572 0.0884263 0
-0.100993 0.0788437 0
-0.0951729 0.0695936 0
-0.0891677 0.0607546 0
-0.0830119 0.0523773 0
-0.0767197 0.0444968 0
-0.0702893 0.0371395 0
-0.0637043 0.0303271 0
-0.0569364 0.0240815 0
-0.0499465 0.0184276 0
-0.0426859 0.013399 0
-0.0350976 0.00904194 0
-0.027116 0.00542183 0
-0.0186661 0.00262869 0
-0.00966152 0.000778899 0
-0.112381 0.138583 0
-0.108023 0.126514 0
-0.105017 0.114955 0
-0.101405 0.103949 0
-0.0964117 0.0934727 0
-0.0911922 0.0832328 0
-0.0857941 0.0733691 0
-0.0802597 0.0639639 0
-0.0746107 0.0550688 0
-0.0688533 0.046719 0
-0.0629806 0.0389404 0
-0.056975 0.0317541 0
-0.0508103 0.025181 0
-0.0444535 0.0192451 0
-0.0378666 0.0139782 0
-0.0310088 0.00942505 0
-0.0238376 0.00564921 0
-0.0163098 0.00273958 0
-0.00838052 0.000813073 0
-0.100827 0.144532 0
-0.0967049 0.131568 0
-0.0938025 0.119268 0
-0.0903288 0.107628 0
-0.085658 0.0966062 0
-0.0808421 0.0858754 0
-0.0759143 0.0755725 0
-0.0708981 0.0657758 0
-0.0658027 0.0565344 0
-0.0606255 0.0478813 0
-0.055355 0.0398406 0
-0.0499721 0.0324321 0
-0.0444523 0.0256746 0
-0.0387684 0.0195902 0
-0.0328929 0.0142078 0
-0.0268004 0.00956834 0
-0.0204717 0.00573095 0
-0.0138953 0.00277942 0
-0.00706928 0.000826356 0
-0.0886862 0.147582 0
-0.0849201 0.133928 0
-0.0821554 0.121096 0
-0.078818 0.109016 0
-0.0745009 0.0976371 0
-0.0701359 0.0866151 0
-0.0657238 0.0760748 0
-0.0612682 0.0660843 0
-0.0567659 0.0566869 0
-0.0522067 0.0479124 0
-0.0475743 0.0397823 0
-0.0428481 0.0323142 0
-0.0380053 0.0255249 0
-0.0330237 0.0194335 0
-0.0278849 0.0140651 0
-0.0225783 0.00945536 0
-0.017106 0.00565616 0
-0.0114876 0.00274233 0
-0.0057642 0.000816793 0
-0.0762232 0.147539 0
-0.0729411 0.133397 0
-0.0703126 0.120235 0
-0.0670986 0.107903 0
-0.0631732 0.0963914 0
-0.0593001 0.0853176 0
-0.055439 0.0747712 0
-0.0515752 0.0648066 0
-0.0476949 0.0554611 0
-0.0437805 0.0467611 0
-0.0398113 0.0387257 0
-0.0357648 0.0313699 0
-0.0316195 0.0247081 0
-0.0273573 0.0187564 0
-0.0229675 0.0135355 0
-0.0184521 0.00907475 0
-0.0138322 0.00541668 0
-0.00915541 0.00262345 0
-0.00450402 0.00078261 0
-0.0637761 0.144031 0
-0.0610269 0.129689 0
-0.0584921 0.11643 0
-0.0554236 0.104105 0
-0.0519461 0.0927462 0
-0.0485892 0.0818934 0
-0.0452958 0.0715936 0
-0.0420398 0.0618913 0
-0.0387968 0.0528198 0
-0.0355409 0.0444021 0
-0.0322465 0.0366542 0
-0.0288894 0.0295889 0
-0.0254487 0.0232179 0
-0.0219096 0.0175544 0
-0.0182671 0.0126152 0
-0.014533 0.00842261 0
-0.0107432 0.00500859 0
-0.00696909 0.00241965 0
-0.00332907 0.000722357 0
-0.0517042 0.136586 0
-0.0494311 0.122471 0
-0.0469551 0.109504 0
-0.0441152 0.0975543 0
-0.0411118 0.0866651 0
-0.0382648 0.0763092 0
-0.0355379 0.0665151 0
-0.0328919 0.0573224 0
-0.0302873 0.0487585 0
-0.0276885 0.0408406 0
-0.0250649 0.0335802 0
-0.022391 0.026987 0
-0.0196465 0.0210708 0
-0.016819 0.0158426 0
-0.0139073 0.0113156 0
-0.010929 0.00750584 0
-0.00793001 0.00443453 0
-0.00499814 0.00213068 0
-0.00228003 0.000635189 0
-0.040222 0.124836 0
-0.0384593 0.111593 0
-0.0360543 0.0994854 0
-0.0334545 0.0883204 0
-0.0309128 0.0781646 0
-0.0285687 0.0685639 0
-0.0264073 0.0595418 0
-0.0243659 0.0511198 0
-0.0223871 0.04331 0
-0.0204267 0.0361186 0
-0.0184514 0.0295506 0
-0.0164358 0.0236124 0
-0.0143612 0.0183125 0
-0.0122167 0.0136609 0
-0.0100032 0.00966857 0
-0.00773998 0.00634692 0
-0.00547636 0.00370724 0
-0.00330747 0.00176121 0
-0.00139597 0.000521428 0
-0.0295392 0.108691 0
-0.0284127 0.0969686 0
-0.0261262 0.0862424 0
-0.0236628 0.0762982 0
-0.0215638 0.0671902 0
-0.0197464 0.058653 0
-0.0181575 0.0507072 0
-0.0167055 0.0433435 0
-0.0153215 0.0365506 0
-0.0139592 0.0303211 0
-0.012587 0.0246538 0
-0.0111827 0.0195524 0
-0.00973039 0.0150251 0
-0.00822097 0.0110821 0
-0.00665517 0.00773446 0
-0.00505035 0.00499079 0
-0.00345205 0.0028552 0
-0.00195148 0.00132433 0
-0.000711129 0.000383797 0
-0.0198141 0.0881863 0
-0.0194074 0.0785317 0
-0.0173964 0.0695633 0
-0.015051 0.0612722 0
-0.013375 0.0536633 0
-0.0121047 0.0466024 0
-0.0110764 0.0400967 0
-0.0101715 0.0341094 0
-0.00932177 0.0286107 0
-0.00848809 0.0235849 0
-0.00764624 0.0190273 0
-0.00677981 0.0149412 0
-0.00587709 0.0113354 0
-0.00493098 0.00822155 0
-0.00394128 0.00561178 0
-0.00292029 0.00351487 0
-0.00190324 0.00193154 0
-0.000965303 0.000848589 0
-0.000247457 0.000229051 0
-0.0114899 0.0634293 0
-0.0115911 0.0564398 0
-0.0100142 0.0495475 0
-0.0079794 0.0432861 0
-0.00675991 0.037674 0
-0.00602124 0.0325614 0
-0.00548891 0.0278918 0
-0.00504001 0.0236108 0
-0.00462294 0.0196868 0
-0.00421314 0.0161057 0
-0.00379668 0.0128646 0
-0.00336418 0.00996791 0
-0.00290862 0.00742513 0
-0.00242525 0.00524865 0
-0.00191294 0.00345162 0
-0.00137779 0.00204425 0
-0.000840741 0.00102803 0
-0.000352136 0.000388147 0
-9.31709e-06 8.12615e-05 0
-0.00526778 0.0346611 0
-0.00512202 0.0308547 0
-0.00408649 0.0264228 0
-0.00281677 0.0226572 0
-0.0021722 0.0195745 0
-0.00189155 0.0168646 0