<?xml version="1.0"?>
<VTKFile type="UnstructuredGrid">
  <UnstructuredGrid>
  <Piece NumberOfPoints="3321"  NumberOfCells="1600">
    <Points>
      <DataArray type="Float64" NumberOfComponents="3" format="ascii">
0 0 0.1
1 0 0.1
1 0.5 0.1
0 0.5 0.1
0.025 0 0.1
0.05 0 0.1
0.075 0 0.1
0.1 0 0.1
0.125 0 0.1
0.15 0 0.1
0.175 0 0.1
0.2 0 0.1
0.225 0 0.1
0.25 0 0.1
0.275 0 0.1
0.3 0 0.1
0.325 0 0.1
0.35 0 0.1
0.375 0 0.1
0.4 0 0.1
0.425 0 0.1
0.45 0 0.1
0.475 0 0.1
0.5 0 0.1
0.525 0 0.1
0.55 0 0.1
0.575 0 0.1
0.6 0 0.1
0.625 0 0.1
0.65 0 0.1
0.675 0 0.1
0.7 0 0.1
0.725 0 0.1
0.75 0 0.1
0.775 0 0.1
0.8 0 0.1
0.825 0 0.1
0.85 0 0.1
0.875 0 0.1
0.9 0 0.1
0.925 0 0.1
0.95 0 0.1
0.975 0 0.1
0.0125 0 0.1
0.0375 0 0.1
0.0625 0 0.1
0.0875 0 0.1
0.1125 0 0.1
0.1375 0 0.1
0.1625 0 0.1
0.1875 0 0.1
0.2125 0 0.1
0.2375 0 0.1
0.2625 0 0.1
0.2875 0 0.1
0.3125 0 0.1
0.3375 0 0.1
0.3625 0 0.1
0.3875 0 0.1
0.4125 0 0.1
0.4375 0 0.1
0.4625 0 0.1
0.4875 0 0.1
0.5125 0 0.1
0.5375 0 0.1
0.5625 0 0.1
0.5875 0 0.1
0.6125 0 0.1
0.6375 0 0.1
0.6625 0 0.1
0.6875 0 0.1
0.7125 0 0.1
0.7375 0 0.1
0.7625 0 0.1
0.7875 0 0.1
0.8125 0 0.1
0.8375 0 0.1
0.8625 0 0.1
0.8875 0 0.1
0.9125 0 0.1
0.9375 0 0.1
0.9625 0 0.1
0.9875 0 0.1
1 0.025 0.1
1 0.05 0.1
1 0.075 0.1
1 0.1 0.1
1 0.125 0.1
1 0.15 0.1
1 0.175 0.1
1 0.2 0.1
1 0.225 0.1
1 0.25 0.1
1 0.275 0.1
1 0.3 0.1
1 0.325 0.1
1 0.35 0.1
1 0.375 0.1
1 0.4 0.1
1 0.425 0.1
1 0.45 0.1
1 0.475 0.1
1 0.0125 0.1
1 0.0375 0.1
1 0.0625 0.1
1 0.0875 0.1
1 0.1125 0.1
1 0.1375 0.1
1 0.1625 0.1
1 0.1875 0.1
1 0.2125 0.1
1 0.2375 0.1
1 0.2625 0.1
1 0.2875 0.1
1 0.3125 0.1
1 0.3375 0.1
1 0.3625 0.1
1 0.3875 0.1
1 0.4125 0.1
1 0.4375 0.1
1 0.4625 0.1
1 0.4875 0.1
0.975 0.5 0.1
0.95 0.5 0.1
0.925 0.5 0.1
0.9 0.5 0.1
0.875 0.5 0.1
0.85 0.5 0.1
0.825 0.5 0.1
0.8 0.5 0.1
0.775 0.5 0.1
0.75 0.5 0.1
0.725 0.5 0.1
0.7 0.5 0.1
0.675 0.5 0.1
0.65 0.5 0.1
0.625 0.5 0.1
0.6 0.5 0.1
0.575 0.5 0.1
0.55 0.5 0.1
0.525 0.5 0.1
0.5 0.5 0.1
0.475 0.5 0.1
0.45 0.5 0.1
0.425 0.5 0.1
0.4 0.5 0.1
0.375 0.5 0.1
0.35 0.5 0.1
0.325 0.5 0.1
0.3 0.5 0.1
0.275 0.5 0.1
0.25 0.5 0.1
0.225 0.5 0.1
0.2 0.5 0.1
0.175 0.5 0.1
0.15 0.5 0.1
0.125 0.5 0.1
0.1 0.5 0.1
0.075 0.5 0.1
0.05 0.5 0.1
0.025 0.5 0.1
0.9875 0.5 0.1
0.9625 0.5 0.1
0.9375 0.5 0.1
0.9125 0.5 0.1
0.8875 0.5 0.1
0.8625 0.5 0.1
0.8375 0.5 0.1
0.8125 0.5 0.1
0.7875 0.5 0.1
0.7625 0.5 0.1
0.7375 0.5 0.1
0.7125 0.5 0.1
0.6875 0.5 0.1
0.6625 0.5 0.1
0.6375 0.5 0.1
0.6125 0.5 0.1
0.5875 0.5 0.1
0.5625 0.5 0.1
0.5375 0.5 0.1
0.5125 0.5 0.1
0.4875 0.5 0.1
0.4625 0.5 0.1
0.4375 0.5 0.1
0.4125 0.5 0.1
0.3875 0.5 0.1
0.3625 0.5 0.1
0.3375 0.5 0.1
0.3125 0.5 0.1
0.2875 0.5 0.1
0.2625 0.5 0.1
0.2375 0.5 0.1
0.2125 0.5 0.1
0.1875 0.5 0.1
0.1625 0.5 0.1
0.1375 0.5 0.1
0.1125 0.5 0.1
0.0875 0.5 0.1
0.0625 0.5 0.1
0.0375 0.5 0.1
0.0125 0.5 0.1
0 0.475 0.1
0 0.45 0.1
0 0.425 0.1
0 0.4 0.1
0 0.375 0.1
0 0.35 0.1
0 0.325 0.1
0 0.3 0.1
0 0.275 0.1
0 0.25 0.1
0 0.225 0.1
0 0.2 0.1
0 0.175 0.1
0 0.15 0.1
0 0.125 0.1
0 0.1 0.1
0 0.075 0.1
0 0.05 0.1
0 0.025 0.1
0 0.4875 0.1
0 0.4625 0.1
0 0.4375 0.1
0 0.4125 0.1
0 0.3875 0.1
0 0.3625 0.1
0 0.3375 0.1
0 0.3125 0.1
0 0.2875 0.1
0 0.2625 0.1
0 0.2375 0.1
0 0.2125 0.1
0 0.1875 0.1
0 0.1625 0.1
0 0.1375 0.1
0 0.1125 0.1
0 0.0875 0.1
0 0.0625 0.1
0 0.0375 0.1
0 0.0125 0.1
0.975 0.475 0.1
0.975 0.45 0.1
0.975 0.425 0.1
0.975 0.4 0.1
0.975 0.375 0.1
0.975 0.35 0.1
0.975 0.325 0.1
0.975 0.3 0.1
0.975 0.275 0.1
0.975 0.25 0.1
0.975 0.225 0.1
0.975 0.2 0.1
0.975 0.175 0.1
0.975 0.15 0.1
0.975 0.125 0.1
0.975 0.1 0.1
0.975 0.075 0.1
0.975 0.05 0.1
0.975 0.025 0.1
0.95 0.475 0.1
0.95 0.45 0.1
0.95 0.425 0.1
0.95 0.4 0.1
0.95 0.375 0.1
0.95 0.35 0.1
0.95 0.325 0.1
0.95 0.3 0.1
0.95 0.275 0.1
0.95 0.25 0.1
0.95 0.225 0.1
0.95 0.2 0.1
0.95 0.175 0.1
0.95 0.15 0.1
0.95 0.125 0.1
0.95 0.1 0.1
0.95 0.075 0.1
0.95 0.05 0.1
0.95 0.025 0.1
0.925 0.475 0.1
0.925 0.45 0.1
0.925 0.425 0.1
0.925 0.4 0.1
0.925 0.375 0.1
0.925 0.35 0.1
0.925 0.325 0.1
0.925 0.3 0.1
0.925 0.275 0.1
0.925 0.25 0.1
0.925 0.225 0.1
0.925 0.2 0.1
0.925 0.175 0.1
0.925 0.15 0.1
0.925 0.125 0.1
0.925 0.1 0.1
0.925 0.075 0.1
0.925 0.05 0.1
0.925 0.025 0.1
0.9 0.475 0.1
0.9 0.45 0.1
0.9 0.425 0.1
0.9 0.4 0.1
0.9 0.375 0.1
0.9 0.35 0.1
0.9 0.325 0.1
0.9 0.3 0.1
0.9 0.275 0.1
0.9 0.25 0.1
0.9 0.225 0.1
0.9 0.2 0.1
0.9 0.175 0.1
0.9 0.15 0.1
0.9 0.125 0.1
0.9 0.1 0.1
0.9 0.075 0.1
0.9 0.05 0.1
0.9 0.025 0.1
0.875 0.475 0.1
0.875 0.45 0.1
0.875 0.425 0.1
0.875 0.4 0.1
0.875 0.375 0.1
0.875 0.35 0.1
0.875 0.325 0.1
0.875 0.3 0.1
0.875 0.275 0.1
0.875 0.25 0.1
0.875 0.225 0.1
0.875 0.2 0.1
0.875 0.175 0.1
0.875 0.15 0.1
0.875 0.125 0.1
0.875 0.1 0.1
0.875 0.075 0.1
0.875 0.05 0.1
0.875 0.025 0.1
0.85 0.475 0.1
0.85 0.45 0.1
0.85 0.425 0.1
0.85 0.4 0.1
0.85 0.375 0.1
0.85 0.35 0.1
0.85 0.325 0.1
0.85 0.3 0.1
0.85 0.275 0.1
0.85 0.25 0.1
0.85 0.225 0.1
0.85 0.2 0.1
0.85 0.175 0.1
0.85 0.15 0.1
0.85 0.125 0.1
0.85 0.1 0.1
0.85 0.075 0.1
0.85 0.05 0.1
0.85 0.025 0.1
0.825 0.475 0.1
0.825 0.45 0.1
0.825 0.425 0.1
0.825 0.4 0.1
0.825 0.375 0.1
0.825 0.35 0.1
0.825 0.325 0.1
0.825 0.3 0.1
0.825 0.275 0.1
0.825 0.25 0.1
0.825 0.225 0.1
0.825 0.2 0.1
0.825 0.175 0.1
0.825 0.15 0.1
0.825 0.125 0.1
0.825 0.1 0.1
0.825 0.075 0.1
0.825 0.05 0.1
0.825 0.025 0.1
0.8 0.475 0.1
0.8 0.45 0.1
0.8 0.425 0.1
0.8 0.4 0.1
0.8 0.375 0.1
0.8 0.35 0.1
0.8 0.325 0.1
0.8 0.3 0.1
0.8 0.275 0.1
0.8 0.25 0.1
0.8 0.225 0.1
0.8 0.2 0.1
0.8 0.175 0.1
0.8 0.15 0.1
0.8 0.125 0.1
0.8 0.1 0.1
0.8 0.075 0.1
0.8 0.05 0.1
0.8 0.025 0.1
0.775 0.475 0.1
0.775 0.45 0.1
0.775 0.425 0.1
0.775 0.4 0.1
0.775 0.375 0.1
0.775 0.35 0.1
0.775 0.325 0.1
0.775 0.3 0.1
0.775 0.275 0.1
0.775 0.25 0.1
0.775 0.225 0.1
0.775 0.2 0.1
0.775 0.175 0.1
0.775 0.15 0.1
0.775 0.125 0.1
0.775 0.1 0.1
0.775 0.075 0.1
0.775 0.05 0.1
0.775 0.025 0.1
0.75 0.475 0.1
0.75 0.45 0.1
0.75 0.425 0.1
0.75 0.4 0.1
0.75 0.375 0.1
0.75 0.35 0.1
0.75 0.325 0.1
0.75 0.3 0.1
0.75 0.275 0.1
0.75 0.25 0.1
0.75 0.225 0.1
0.75 0.2 0.1
0.75 0.175 0.1
0.75 0.15 0.1
0.75 0.125 0.1
0.75 0.1 0.1
0.75 0.075 0.1
0.75 0.05 0.1
0.75 0.025 0.1
0.725 0.475 0.1
0.725 0.45 0.1
0.725 0.425 0.1
0.725 0.4 0.1
0.725 0.375 0.1
0.725 0.35 0.1
0.725 0.325 0.1
0.725 0.3 0.1
0.725 0.275 0.1
0.725 0.25 0.1
0.725 0.225 0.1
0.725 0.2 0.1
0.725 0.175 0.1
0.725 0.15 0.1
0.725 0.125 0.1
0.725 0.1 0.1
0.725 0.075 0.1
0.725 0.05 0.1
0.725 0.025 0.1
0.7 0.475 0.1
0.7 0.45 0.1
0.7 0.425 0.1
0.7 0.4 0.1
0.7 0.375 0.1
0.7 0.35 0.1
0.7 0.325 0.1
0.7 0.3 0.1
0.7 0.275 0.1
0.7 0.25 0.1
0.7 0.225 0.1
0.7 0.2 0.1
0.7 0.175 0.1
0.7 0.15 0.1
0.7 0.125 0.1
0.7 0.1 0.1
0.7 0.075 0.1
0.7 0.05 0.1
0.7 0.025 0.1
0.675 0.475 0.1
0.675 0.45 0.1
0.675 0.425 0.1
0.675 0.4 0.1
0.675 0.375 0.1
0.675 0.35 0.1
0.675 0.325 0.1
0.675 0.3 0.1
0.675 0.275 0.1
0.675 0.25 0.1
0.675 0.225 0.1
0.675 0.2 0.1
0.675 0.175 0.1
0.675 0.15 0.1
0.675 0.125 0.1
0.675 0.1 0.1
0.675 0.075 0.1
0.675 0.05 0.1
0.675 0.025 0.1
0.65 0.475 0.1
0.65 0.45 0.1
0.65 0.425 0.1
0.65 0.4 0.1
0.65 0.375 0.1
0.65 0.35 0.1
0.65 0.325 0.1
0.65 0.3 0.1
0.65 0.275 0.1
0.65 0.25 0.1
0.65 0.225 0.1
0.65 0.2 0.1
0.65 0.175 0.1
0.65 0.15 0.1
0.65 0.125 0.1
0.65 0.1 0.1
0.65 0.075 0.1
0.65 0.05 0.1
0.65 0.025 0.1
0.625 0.475 0.1
0.625 0.45 0.1
0.625 0.425 0.1
0.625 0.4 0.1
0.625 0.375 0.1
0.625 0.35 0.1
0.625 0.325 0.1
0.625 0.3 0.1
0.625 0.275 0.1
0.625 0.25 0.1
0.625 0.225 0.1
0.625 0.2 0.1
0.625 0.175 0.1
0.625 0.15 0.1
0.625 0.125 0.1
0.625 0.1 0.1
0.625 0.075 0.1
0.625 0.05 0.1
0.625 0.025 0.1
0.6 0.475 0.1
0.6 0.45 0.1
0.6 0.425 0.1
0.6 0.4 0.1
0.6 0.375 0.1
0.6 0.35 0.1
0.6 0.325 0.1
0.6 0.3 0.1
0.6 0.275 0.1
0.6 0.25 0.1
0.6 0.225 0.1
0.6 0.2 0.1
0.6 0.175 0.1
0.6 0.15 0.1
0.6 0.125 0.1
0.6 0.1 0.1
0.6 0.075 0.1
0.6 0.05 0.1
0.6 0.025 0.1
0.575 0.475 0.1
0.575 0.45 0.1
0.575 0.425 0.1
0.575 0.4 0.1
0.575 0.375 0.1
0.575 0.35 0.1
0.575 0.325 0.1
0.575 0.3 0.1
0.575 0.275 0.1
0.575 0.25 0.1
0.575 0.225 0.1
0.575 0.2 0.1
0.575 0.175 0.1
0.575 0.15 0.1
0.575 0.125 0.1
0.575 0.1 0.1
0.575 0.075 0.1
0.575 0.05 0.1
0.575 0.025 0.1
0.55 0.475 0.1
0.55 0.45 0.1
0.55 0.425 0.1
0.55 0.4 0.1
0.55 0.375 0.1
0.55 0.35 0.1
0.55 0.325 0.1
0.55 0.3 0.1
0.55 0.275 0.1
0.55 0.25 0.1
0.55 0.225 0.1
0.55 0.2 0.1
0.55 0.175 0.1
0.55 0.15 0.1
0.55 0.125 0.1
0.55 0.1 0.1
0.55 0.075 0.1
0.55 0.05 0.1
0.55 0.025 0.1
0.525 0.475 0.1
0.525 0.45 0.1
0.525 0.425 0.1
0.525 0.4 0.1
0.525 0.375 0.1
0.525 0.35 0.1
0.525 0.325 0.1
0.525 0.3 0.1
0.525 0.275 0.1
0.525 0.25 0.1
0.525 0.225 0.1
0.525 0.2 0.1
0.525 0.175 0.1
0.525 0.15 0.1
0.525 0.125 0.1
0.525 0.1 0.1
0.525 0.075 0.1
0.525 0.05 0.1
0.525 0.025 0.1
0.5 0.475 0.1
0.5 0.45 0.1
0.5 0.425 0.1
0.5 0.4 0.1
0.5 0.375 0.1
0.5 0.35 0.1
0.5 0.325 0.1
0.5 0.3 0.1
0.5 0.275 0.1
0.5 0.25 0.1
0.5 0.225 0.1
0.5 0.2 0.1
0.5 0.175 0.1
0.5 0.15 0.1
0.5 0.125 0.1
0.5 0.1 0.1
0.5 0.075 0.1
0.5 0.05 0.1
0.5 0.025 0.1
0.475 0.475 0.1
0.475 0.45 0.1
0.475 0.425 0.1
0.475 0.4 0.1
0.475 0.375 0.1
0.475 0.35 0.1
0.475 0.325 0.1
0.475 0.3 0.1
0.475 0.275 0.1
0.475 0.25 0.1
0.475 0.225 0.1
0.475 0.2 0.1
0.475 0.175 0.1
0.475 0.15 0.1
0.475 0.125 0.1
0.475 0.1 0.1
0.475 0.075 0.1
0.475 0.05 0.1
0.475 0.025 0.1
0.45 0.475 0.1
0.45 0.45 0.1
0.45 0.425 0.1
0.45 0.4 0.1
0.45 0.375 0.1
0.45 0.35 0.1
0.45 0.325 0.1
0.45 0.3 0.1
0.45 0.275 0.1
0.45 0.25 0.1
0.45 0.225 0.1
0.45 0.2 0.1
0.45 0.175 0.1
0.45 0.15 0.1
0.45 0.125 0.1
0.45 0.1 0.1
0.45 0.075 0.1
0.45 0.05 0.1
0.45 0.025 0.1
0.425 0.475 0.1
0.425 0.45 0.1
0.425 0.425 0.1
0.425 0.4 0.1
0.425 0.375 0.1
0.425 0.35 0.1
0.425 0.325 0.1
0.425 0.3 0.1
0.425 0.275 0.1
0.425 0.25 0.1
0.425 0.225 0.1
0.425 0.2 0.1
0.425 0.175 0.1
0.425 0.15 0.1
0.425 0.125 0.1
0.425 0.1 0.1
0.425 0.075 0.1
0.425 0.05 0.1
0.425 0.025 0.1
0.4 0.475 0.1
0.4 0.45 0.1
0.4 0.425 0.1
0.4 0.4 0.1
0.4 0.375 0.1
0.4 0.35 0.1
0.4 0.325 0.1
0.4 0.3 0.1
0.4 0.275 0.1
0.4 0.25 0.1
0.4 0.225 0.1
0.4 0.2 0.1
0.4 0.175 0.1
0.4 0.15 0.1
0.4 0.125 0.1
0.4 0.1 0.1
0.4 0.075 0.1
0.4 0.05 0.1
0.4 0.025 0.1
0.375 0.475 0.1
0.375 0.45 0.1
0.375 0.425 0.1
0.375 0.4 0.1
0.375 0.375 0.1
[...]
    <PointData>
      <DataArray type="Float64" NumberOfComponents="3" Name="Velocity" format="ascii">
0 0 0
0 0 0
0 0 0
0 0 0
0 0 0
0 0 0
0 0 0
0 0 0
0 0 0
0 0 0
0 0 0
0 0 0
0 0 0
0 0 0
0 0 0
0 0 0
0 0 0
0 0 0
0 0 0
0 0 0
0 0 0
0 0 0
0 0 0
0 0 0
0 0 0
0 0 0
0 0 0
0 0 0
0 0 0
0 0 0
0 0 0
0 0 0
0 0 0
0 0 0
0 0 0
0 0 0
0 0 0
0 0 0
0 0 0
0 0 0
0 0 0
0 0 0
0 0 0
0 0 0
0 0 0
0 0 0
0 0 0
0 0 0
0 0 0
0 0 0
0 0 0
0 0 0
0 0 0
0 0 0
0 0 0
0 0 0
0 0 0
0 0 0
0 0 0
0 0 0
0 0 0
0 0 0
0 0 0
0 0 0
0 0 0
0 0 0
0 0 0
0 0 0
0 0 0
0 0 0
0 0 0
0 0 0
0 0 0
0 0 0
0 0 0
0 0 0
0 0 0
0 0 0
0 0 0
0 0 0
0 0 0
0 0 0
0 0 0
0 0 0
0 0 0
0 0 0
0 0 0
0 0 0
0 0 0
0 0 0
0 0 0
0 0 0
0 0 0
0 0 0
0 0 0
0 0 0
0 0 0
0 0 0
0 0 0
0 0 0
0 0 0
0 0 0
0 0 0
0 0 0
0 0 0
0 0 0
0 0 0
0 0 0
0 0 0
0 0 0
0 0 0
0 0 0
0 0 0
0 0 0
0 0 0
0 0 0
0 0 0
0 0 0
0 0 0
0 0 0
0 0 0
0 0 0
-0.000383778 -0.0126613 0
-0.0016932 -0.0255353 0
-0.00386726 -0.0376349 0
-0.00671325 -0.0478464 0
-0.00992157 -0.0562639 0
-0.0134251 -0.0626428 0
-0.0170574 -0.0669761 0
-0.0207165 -0.0693206 0
-0.0242918 -0.0697904 0
-0.027703 -0.0685409 0
-0.0308828 -0.0657462 0
-0.0337838 -0.0615923 0
-0.0363724 -0.0562646 0
-0.0386279 -0.049944 0
-0.0405386 -0.0428018 0
-0.0420998 -0.0349984 0
-0.0433107 -0.0266824 0
-0.0441731 -0.0179925 0
-0.0446891 -0.00905823 0
-0.0448606 -3.37394e-06 0
-0.0446884 0.00905156 0
-0.0441717 0.017986 0
-0.0433087 0.0266764 0
-0.0420972 0.0349928 0
-0.0405356 0.0427968 0
-0.0386244 0.0499397 0
-0.0363686 0.056261 0
-0.0337798 0.0615893 0
-0.0308789 0.0657439 0
-0.0276994 0.068539 0
-0.0242886 0.0697889 0
-0.0207139 0.0693195 0
-0.0170564 0.0669749 0
-0.0134257 0.0626416 0
-0.0099261 0.0562562 0
-0.006717 0.0478377 0
-0.00386558 0.0375745 0
-0.00163455 0.025514 0
-0.000392912 0.0128057 0
-8.03605e-05 -0.00639339 0
-0.000922592 -0.0190144 0
-0.00265625 -0.0318443 0
-0.00523932 -0.0429358 0
-0.00826079 -0.0523022 0
-0.011647 -0.0597072 0
-0.0152261 -0.0650592 0
-0.0188898 -0.0683885 0
-0.0225183 -0.0697777 0
-0.0260226 -0.069368 0
-0.0293256 -0.0673232 0
-0.0323718 -0.0638261 0
-0.0351204 -0.0590625 0
-0.0375449 -0.0532165 0
-0.0396294 -0.0464646 0
-0.0413658 -0.0389726 0
-0.0427519 -0.030895 0
-0.0437884 -0.0223754 0
-0.0444774 -0.0135476 0
-0.044821 -0.00453785 0
-0.0448206 0.00453201 0
-0.0444762 0.0135418 0
-0.0437865 0.0223699 0
-0.0427493 0.0308899 0
-0.0413627 0.0389678 0
-0.0396256 0.0464603 0
-0.0375407 0.0532127 0
-0.0351159 0.0590591 0
-0.0323672 0.063823 0
-0.0293209 0.0673204 0
-0.0260183 0.0693653 0
-0.0225142 0.0697752 0
-0.0188872 0.0683857 0
-0.0152232 0.0650563 0
-0.0116499 0.059702 0
-0.0082582 0.0522903 0
-0.00525092 0.0429087 0
-0.00261653 0.0317588 0
-0.00091432 0.0191564 0
-8.49e-05 0.00645102 0
0 0 0
0 0 0
0 0 0
0 0 0
0 0 0
0 0 0
0 0 0
0 0 0
0 0 0
0 0 0
0 0 0
0 0 0
0 0 0
0 0 0
0 0 0
0 0 0
0 0 0
0 0 0
0 0 0
0 0 0
0 0 0
0 0 0
0 0 0
0 0 0
0 0 0
0 0 0
0 0 0
0 0 0
0 0 0
0 0 0
0 0 0
0 0 0
0 0 0
0 0 0
0 0 0
0 0 0
0 0 0
0 0 0
0 0 0
3.31072e-05 -0.0124163 0
0.000421083 -0.0123928 0
0.000838396 -0.0122754 0
0.00126079 -0.0122437 0
-0.000281134 -0.0119216 0
-0.000864491 -0.0109269 0
-0.00100914 -0.00961865 0
-0.00099005 -0.00823376 0
-0.000915847 -0.00688881 0
-0.00082658 -0.0056342 0
-0.00073523 -0.0044895 0
-0.000644605 -0.00346216 0
-0.000553903 -0.00255632 0
-0.000461238 -0.00177659 0
-0.000364785 -0.00112939 0
-0.000263841 -0.000622759 0
-0.00016079 -0.000264847 0
-6.34069e-05 -6.05813e-05 0
1.32322e-05 5.82444e-06 0
-0.000626479 -0.0242259 0
7.07656e-05 -0.0234325 0
0.00077495 -0.0228812 0
0.00153149 -0.0225072 0
-0.00136833 -0.0210638 0
-0.00252907 -0.0192778 0
-0.00289093 -0.0171573 0
-0.0028881 -0.0148945 0
-0.00273063 -0.0126417 0
-0.00251196 -0.0104898 0
-0.00227006 -0.00848824 0
-0.00201784 -0.00666474 0
-0.00175729 -0.00503702 0
-0.00148607 -0.00361931 0
-0.00120099 -0.0024252 0
-0.000900995 -0.00146789 0
-0.000591357 -0.000757991 0
-0.000291567 -0.000297465 0
-5.3746e-05 -6.67975e-05 0
-0.00235933 -0.0351095 0
-0.00120956 -0.0331197 0
-0.00021093 -0.0314712 0
0.000499652 -0.0302121 0
-0.00314805 -0.0280203 0
-0.00481733 -0.0256402 0
-0.00542611 -0.0229653 0
-0.00548606 -0.0201298 0
-0.00527098 -0.0172742 0
-0.0049207 -0.0145023 0
-0.00450222 -0.011884 0
-0.00404448 -0.00946594 0
-0.00355722 -0.00728044 0
-0.00304127 -0.00535254 0
-0.0024949 -0.00370324 0
-0.00191921 -0.00235043 0
-0.00132517 -0.00130751 0
-0.000745183 -0.000579612 0
-0.000253482 -0.0001569 0
-0.00510401 -0.0448829 0
-0.00356267 -0.0419719 0
-0.00237933 -0.0391855 0
-0.00180236 -0.0365581 0
-0.00566044 -0.0335167 0
-0.00762435 -0.0305428 0
-0.0084365 -0.0274123 0
-0.00857236 -0.0241629 0
-0.00832196 -0.0208922 0
-0.00785225 -0.0176935 0
-0.00725402 -0.0146411 0
-0.00657305 -0.0117914 0
-0.00582965 -0.00918727 0
-0.00503094 -0.00686247 0
-0.00417928 -0.00484476 0
-0.00327977 -0.00315741 0
-0.00234881 -0.00181938 0
-0.00142654 -0.000844863 0
-0.000594885 -0.000242206 0
-0.00838739 -0.0528413 0
-0.00690869 -0.0492845 0
-0.00575089 -0.0455654 0
-0.00526518 -0.0418249 0
-0.00889738 -0.0379223 0
-0.0109246 -0.0343512 0
-0.0118371 -0.0307931 0
-0.0120167 -0.0272039 0
-0.0117296 -0.0236271 0
-0.0111475 -0.020129 0
-0.0103737 -0.0167745 0
-0.00946688 -0.01362 0
-0.00845728 -0.0107122 0
-0.00735914 -0.00808996 0
-0.00617992 -0.00578632 0
-0.00492858 -0.00383022 0
-0.00362462 -0.00224817 0
-0.00230924 -0.00106652 0
-0.00105924 -0.00031353 0
-0.0121591 -0.058943 0
-0.0109175 -0.054919 0
-0.0099963 -0.0505558 0
-0.00968385 -0.046059 0
-0.0128335 -0.0413757 0
-0.0147074 -0.0372439 0
-0.0155888 -0.0332893 0
-0.0157457 -0.0294078 0
-0.0153954 -0.0255945 0
-0.0146943 -0.0218842 0
-0.0137464 -0.0183244 0
-0.012616 -0.0149638 0
-0.01134 -0.0118472 0
-0.0099385 -0.00901466 0
-0.00842297 -0.00650261 0
-0.00680471 -0.00434508 0
-0.00510294 -0.00257649 0
-0.003354 -0.00123541 0
-0.00162092 -0.000367646 0
-0.0162014 -0.0631342 0
-0.0153885 -0.0588401 0
-0.0148349 -0.0540704 0
-0.014772 -0.0490727 0
-0.0173389 -0.0438389 0
-0.018915 -0.0392682 0
-0.0196463 -0.0349866 0
-0.0197037 -0.030869 0
-0.0192485 -0.0268796 0
-0.0184104 -0.0230261 0
-0.0172836 -0.0193374 0
-0.0159313 -0.0158509 0
-0.0143925 -0.0126057 0
-0.01269 -0.00964014 0
-0.0108373 -0.00699187 0
-0.00884528 -0.00469882 0
-0.00672969 -0.00280225 0
-0.00451741 -0.00135112 0
-0.00225279 -0.000404651 0
-0.0203807 -0.0654627 0
-0.0200958 -0.0610645 0
-0.0200151 -0.0561066 0
-0.0202746 -0.0508462 0
-0.022241 -0.0452819 0
-0.023442 -0.0404235 0
-0.0239382 -0.0359171 0
-0.0238289 -0.0316388 0
-0.0232252 -0.0275389 0
-0.0222267 -0.0236074 0
-0.020912 -0.0198575 0
-0.0193374 -0.0163149 0
-0.01754 -0.0130117 0
-0.0155419 -0.00998281 0
-0.0133555 -0.00726522 0
-0.0109889 -0.00489922 0
-0.00845116 -0.00293108 0
-0.00575673 -0.00141729 0
-0.00292891 -0.000425943 0
-0.0245478 -0.0660275 0
-0.0248669 -0.0616698 0
-0.0253231 -0.0566998 0
-0.0259609 -0.0513803 0
-0.0273581 -0.0456945 0
-0.028158 -0.0407071 0
-0.0283705 -0.0360943 0
-0.0280468 -0.0317459 0
-0.0272585 -0.0276104 0
-0.0260774 -0.0236685 0
-0.0245647 -0.0199226 0
-0.0227669 -0.0163891 0
-0.0207153 -0.0130929 0
-0.0184284 -0.0100646 0
-0.0159149 -0.0073397 0
-0.0131777 -0.00495907 0
-0.0102166 -0.00297188 0
-0.00703213 -0.00143905 0
-0.00362584 -0.000433324 0
-0.0285917 -0.0649604 0
-0.0295493 -0.0607616 0
-0.0305789 -0.0559296 0
-0.0316304 -0.0507201 0
-0.0325187 -0.0450959 0
-0.0329264 -0.0401302 0
-0.0328371 -0.0355332 0
-0.0322724 -0.0312128 0
-0.0312755 -0.027123 0
-0.0298956 -0.023242 0
-0.0281774 -0.019566 0
-0.0261561 -0.0161046 0
-0.0238556 -0.0128768 0
-0.0212883 -0.00990898 0
-0.0184573 -0.00723417 0
-0.0153579 -0.00489268 0
-0.0119796 -0.0029344 0
-0.00830776 -0.00142178 0
-0.00432295 -0.0004286 0
-0.0324167 -0.0624181 0
-0.0340222 -0.0584728 0
-0.0356348 -0.053898 0
-0.0371171 -0.048937 0
-0.0375691 -0.0435302 0
-0.0376158 -0.0387226 0
-0.0372294 -0.0342584 0
-0.0364157 -0.0300648 0
-0.0351995 -0.0261045 0
-0.0336127 -0.0223576 0
-0.031686 -0.0188178 0
-0.029444 -0.0154903 0
-0.0269018 -0.0123897 0
-0.0240649 -0.00953862 0
-0.0209289 -0.00696724 0
-0.0174806 -0.00471411 0
-0.0136981 -0.00282805 0
-0.00955181 -0.0013705 0
-0.00500238 -0.000413417 0
-0.0359514 -0.0585673 0
-0.0381888 -0.0549486 0
-0.0403726 -0.0507254 0
-0.0422848 -0.0461226 0
-0.042377 -0.0410629 0
-0.0421062 -0.0365318 0
-0.0414432 -0.0323074 0
-0.0403874 -0.0283345 0
-0.0389528 -0.024586 0
-0.0371596 -0.0210457 0
-0.0350275 -0.0177074 0
-0.0325713 -0.0145739 0
-0.029798 -0.0116568 0
-0.0267051 -0.00897521 0
-0.0232804 -0.00655647 0
-0.0195013 -0.00443645 0
-0.0153347 -0.00266139 0
-0.0107363 -0.0012897 0
-0.00564867 -0.000389214 0
-0.0391416 -0.0535792 0
-0.041976 -0.050341 0
-0.0446988 -0.0465424 0
-0.0470251 -0.0423825 0
-0.0468318 -0.0377751 0
-0.0462925 -0.0336205 0
-0.045383 -0.0297297 0
-0.0441024 -0.0260635 0
-0.0424601 -0.022604 0
-0.0404689 -0.0193396 0
-0.0381404 -0.0162654 0
-0.0354814 -0.0133832 0
-0.0324912 -0.0107024 0
-0.0291597 -0.00823941 0
-0.0254665 -0.00601833 0
-0.0213801 -0.00407176 0
-0.0168562 -0.00244219 0
-0.011837 -0.00118332 0
-0.00624854 -0.000357238 0
-0.0419493 -0.0476221 0
-0.0453302 -0.0448022 0
-0.0485475 -0.0414815 0
-0.051257 -0.037831 0
-0.0508429 -0.0337597 0
-0.050086 -0.0300627 0
-0.0489645 -0.0265851 0
-0.0474833 -0.0233013 0
-0.0456512 -0.0202009 0
-0.0434771 -0.0172764 0
-0.040967 -0.0145244 0
-0.0381212 -0.0119468 0
-0.0349324 -0.00955113 0
-0.0313835 -0.00735137 0
-0.0274466 -0.0053685 0
-0.0230814 -0.00363128 0
-0.0182334 -0.00217747 0
-0.0128326 -0.00105491 0
-0.00679057 -0.00031858 0
-0.0443486 -0.0408581 0
-0.0482112 -0.0384828 0
-0.0518687 -0.0356753 0
-0.0549214 -0.0325813 0
-0.0543476 -0.0291152 0
-0.0534142 -0.0259383 0
-0.0521154 -0.0229408 0
-0.0504615 -0.0201049 0
-0.0484627 -0.0174252 0
-0.0461261 -0.0148975 0
-0.0434541 -0.0125201 0
-0.0404421 -0.0102948 0
-0.0370772 -0.00822793 0
-0.0333362 -0.00633118 0
-0.0291845 -0.00462226 0
-0.0245739 -0.0031257 0
-0.0194409 -0.00187385 0
-0.0137049 -0.000907702 0
-0.00726505 -0.000274229 0
-0.0463233 -0.0334404 0
-0.0505918 -0.0315271 0
-0.0546209 -0.0292582 0
-0.0579697 -0.0267503 0
-0.0572826 -0.0239303 0
-0.056215 -0.0213321 0
-0.0547741 -0.0188709 0
-0.0529778 -0.0165376 0
-0.0508391 -0.0143306 0
-0.0483647 -0.0122486 0
-0.0455547 -0.0102908 0
-0.042401 -0.00845918 0
-0.0388863 -0.00675885 0
-0.0349825 -0.00519929 0
-0.0306489 -0.00379485 0
-0.0258308 -0.00256551 0
-0.0204573 -0.00153767 0
-0.0144386 -0.000744789 0
-0.00766379 -0.000225114 0
-0.047864 -0.0255136 0
-0.0524559 -0.0240723 0
-0.05678 -0.0223601 0
-0.060365 -0.0204619 0
-0.0596026 -0.0183173 0
-0.0584383 -0.0163367 0
-0.0568902 -0.0144551 0
-0.0549834 -0.0126678 0
-0.052734 -0.0109758 0
-0.0501496 -0.0093791 0
-0.047229 -0.0078779 0
-0.0439615 -0.00647388 0
-0.0403267 -0.00517111 0
-0.0362924 -0.00397679 0
-0.0318135 -0.00290176 0
-0.02683 -0.00196122 0
-0.0212647 -0.00117523 0
-0.0150211 -0.000569193 0
-0.00798014 -0.000172137 0
-0.0489661 -0.0172136 0
-0.0537928 -0.0162501 0
-0.0583312 -0.015105 0
-0.0620887 -0.0138302 0
-0.061277 -0.0123853 0
-0.0600478 -0.0110494 0
-0.0584252 -0.0097779 0
-0.0564398 -0.00856862 0
-0.0541107 -0.00742298 0
-0.0514464 -0.00634163 0
-0.048445 -0.00532508 0
-0.0450944 -0.00437466 0
-0.0413719 -0.00349317 0
-0.0372424 -0.00268547 0
-0.0326577 -0.00195885 0
-0.0275538 -0.00132349 0
-0.0218493 -0.000792849 0
-0.0154426 -0.000383944 0
-0.00820889 -0.000116201 0
-0.0496277 -0.00866893 0
-0.0545965 -0.00818607 0
-0.0592645 -0.00761396 0
-0.0631265 -0.00697101 0
-0.0622863 -0.00624142 0
-0.0610187 -0.00556779 0
-0.0593518 -0.00492632 0
-0.0573194 -0.00431585 0
-0.0549425 -0.00373734 0
-0.0522298 -0.00319132 0
-0.0491794 -0.00267823 0
-0.0457784 -0.00219881 0
-0.0420025 -0.00175453 0
-0.0378153 -0.00134784 0
-0.0331664 -0.000982376 0
-0.0279897 -0.000663197 0
-0.0222012 -0.000396971 0
-0.015696 -0.000192111 0
-0.00834634 -5.82151e-05 0
-0.0498478 -3.29381e-06 0
-0.0548641 -2.15242e-06 0
-0.059575 -5.60147e-06 0
-0.0634712 1.7591e-06 0
-0.0626186 8.53361e-06 0
-0.0613361 1.02736e-05 0
-0.0596538 1.15354e-05 0
-0.0576057 1.28779e-05 0
-0.055213 1.41005e-05 0
-0.0524845 1.49938e-05 0
-0.049418 1.54074e-05 0
-0.0460004 1.52444e-05 0
-0.0422069 1.44548e-05 0
-0.0380007 1.30348e-05 0
-0.0333307 1.10357e-05 0
-0.0281302 8.578e-06 0
-0.0223142 5.86653e-06 0
-0.0157773 3.19313e-06 0
-0.00839027 8.95738e-07 0
-0.0496265 0.00866243 0
-0.0545948 0.00818193 0
-0.0592607 0.007603 0
-0.06312 0.0069747 0
-0.0622696 0.00625839 0
-0.0609954 0.00558663 0
-0.059326 0.00494697 0
-0.0572933 0.00433919 0
-0.0549171 0.00376345 0
-0.0522054 0.00321965 0
-0.0491561 0.00270782 0
-0.0457561 0.00222848 0
-0.0419813 0.00178299 0
-0.0377953 0.00137377 0
-0.0331477 0.00100455 0
-0.0279728 0.000680625 0
-0.0221867 0.000409053 0
-0.015685 0.000198821 0
-0.00834001 6.01982e-05 0
-0.0489639 0.0172073 0
-0.0537893 0.0162464 0
-0.0583234 0.0150947 0
-0.0620755 0.0138346 0
-0.0612433 0.0124005 0
-0.0600025 0.0110627 0
-0.0583752 0.00979149 0
-0.0563889 0.00858505 0
-0.0540609 0.00744312 0
-0.0513983 0.00636516 0
-0.0483988 0.00535109 0
-0.0450503 0.00440191 0
-0.0413299 0.00352026 0
-0.0372028 0.00271095 0
-0.0326208 0.00198131 0
-0.0275205 0.00134171 0
-0.0218208 0.000805963 0
-0.0154208 0.000391619 0
-0.0081964 0.000118757 0
-0.0478607 0.0255078 0
-0.0524509 0.0240692 0
-0.0567681 0.0223509 0
-0.0603454 0.0204674 0
-0.059553 0.0183261 0
-0.0583743 0.01634 0
-0.0568198 0.0144577 0
-0.054911 0.0126739 0
-0.0526621 0.010987 0
-0.0500794 0.00939526 0
-0.0471613 0.00789825 0
-0.0438967 0.00649718 0
-0.040265 0.00519589 0
-0.0362342 0.00400142 0
-0.0317595 0.0029246 0
-0.0267812 0.00198068 0
-0.021223 0.00119001 0
-0.0149892 0.00057845 0
-0.00796183 0.000175641 0
-0.0463191 0.0334351 0
-0.0505856 0.0315246 0
-0.0546055 0.0292502 0
-0.0579445 0.0267578 0
-0.0572216 0.0239265 0
-0.0561385 0.0213214 0
-0.0546893 0.0188603 0
-0.0528888 0.0165317 0
-0.0507489 0.0143312 0
-0.0482754 0.0122558 0
-0.0454678 0.010304 0
-0.0423175 0.00847723 0
-0.0388068 0.00678039 0
-0.0349075 0.00522263 0
-0.0305794 0.00381806 0
-0.0257682 0.00258657 0
-0.0204037 0.0015547 0
-0.0143975 0.000756218 0
-0.00764018 0.000229935 0
-0.044344 0.0408534 0
-0.0482042 0.0384811 0
-0.0518516 0.0356672 0
-0.0548958 0.0325879 0
-0.0542847 0.0290942 0
-0.0533345 0.0259135 0
-0.0520234 0.022918 0
-0.0503617 0.0200877 0
-0.0483589 0.0174151 0
-0.0460216 0.0148951 0
-0.0433513 0.0125251 0
-0.0403428 0.0103066 0
-0.0369826 0.0082454 0
-0.0332472 0.00635271 0
-0.029102 0.00464574 0
-0.0244995 0.00314863 0
-0.0193773 0.00189365 0
-0.013656 0.000921865 0
-0.00723686 0.000280731 0
-0.0419447 0.0476181 0
-0.0453242 0.0448007 0
-0.048536 0.0414718 0
-0.0512403 0.03784 0
-0.0507945 0.0337358 0
-0.0500107 0.0300313 0
-0.0488708 0.026554 0
-0.0473774 0.0232749 0
-0.0455383 0.0201812 0
-0.0433617 0.0172644 0
-0.0408525 0.0145208 0
-0.0380101 0.0119516 0
-0.0348264 0.0095638 0
-0.0312839 0.00737061 0
-0.0273544 0.00539211 0
-0.0229983 0.00365631 0
-0.0181622 0.00220051 0
-0.0127777 0.00107235 0
-0.00675878 0.000327128 0
-0.0391373 0.0535755 0
-0.0419724 0.0503388 0
-0.0446919 0.0465332 0
-0.0470134 0.0423974 0
-0.046788 0.0377652 0
-0.0462201 0.0335908 0
-0.0452885 0.0296947 0
-0.0439927 0.0260301 0
-0.0423413 0.0225755 0
-0.0403463 0.0193182 0
-0.0380184 0.0162526 0
-0.035363 0.0133803 0
-0.0323783 0.0107096 0
-0.0290538 0.00825586 0
-0.0253687 0.0060419 0
-0.0212919 0.00409907 0
-0.0167805 0.00246891 0
-0.0117784 0.00120458 0
-0.00621435 0.000368203 0
-0.0359476 0.0585634 0
-0.0381861 0.0549461 0
-0.0403628 0.0507184 0
-0.0422691 0.0461408 0
-0.0423305 0.0410638 0
-0.0420315 0.0365054 0
-0.0413457 0.0322696 0
-0.0402737 0.0282944 0
-0.0388296 0.0245483 0
-0.0370329 0.0210139 0
-0.034902 0.0176845 0
-0.0324503 0.0145622 0
-0.0296834 0.0116576 0
-0.0265981 0.00898832 0
-0.0231818 0.00657981 0
-0.0194123 0.0044662 0
-0.0152581 0.00269225 0
-0.0106766 0.00131531 0
-0.00561353 0.000402983 0
-0.0324132 0.0624138 0
-0.0340195 0.0584706 0
-0.0356234 0.0538918 0
-0.0370991 0.0489569 0
-0.0375165 0.043537 0
-0.0375343 0.0386956 0
-0.0371251 0.034215 0
-0.0362962 0.0300152 0
-0.0350723 0.026055 0
-0.0334842 0.022313 0
-0.031561 0.0187826 0
-0.0293254 0.0154682 0
-0.0267911 0.0123831 0
-0.0239625 0.00954774 0
-0.020835 0.00699014 0
-0.0173959 0.00474648 0
-0.0136247 0.0028635 0
-0.00949408 0.00140103 0
-0.00496801 0.000430391 0
-0.0285886 0.0649558 0
-0.0295466 0.0607595 0
-0.0305655 0.055924 0
-0.0316092 0.0507417 0
-0.0324572 0.0451047 0
-0.0328326 0.0400974 0
-0.0327207 0.0354782 0
-0.0321438 0.0311479 0
-0.0311436 0.0270562 0
-0.0297672 0.0231801 0
-0.0280567 0.0195151 0
-0.0260452 0.0160698 0
-0.0237547 0.0128612 0
-0.0211968 0.00991336 0
-0.0183741 0.00725642 0
-0.0152829 0.00492786 0
-0.0119141 0.00297489 0
-0.00825549 0.00145779 0
-0.00429128 0.000449194 0
-0.0245453 0.0660224 0
-0.0248643 0.061668 0
-0.025308 0.0566949 0
-0.0259353 0.0514031 0
-0.0272813 0.0457011 0
-0.0280436 0.0406608 0
-0.0282348 0.0360184 0
-0.0279048 0.0316563 0
-0.027121 0.0275181 0
-0.0259513 0.0235828 0
-0.0244531 0.0198514 0
-0.0226698 0.0163386 0
-0.0206311 0.0130667 0
-0.0183544 0.0100636 0
-0.0158489 0.00736119 0
-0.0131181 0.00499727 0
-0.0101638 0.00301782 0
-0.00698899 0.00148102 0
-0.00359895 0.000457934 0
-0.0203792 0.0654576 0
-0.020094 0.061063 0
-0.0199969 0.0561024 0
-0.0202424 0.0508708 0
-0.022138 0.0452789 0
-0.023295 0.0403516 0
-0.0237742 0.035806 0
-0.0236691 0.031511 0
-0.0230824 0.02741 0
-0.0221067 0.0234896 0
-0.0208155 0.0197605 0
-0.0192616 0.0162456 0
-0.0174802 0.0129736 0
-0.015493 0.00997602 0
-0.0133133 0.00728618 0
-0.0109505 0.00494082 0
-0.00841585 0.00298282 0
-0.00572639 0.00146556 0
-0.00290897 0.000454878 0
-0.016202 0.0631286 0
-0.015388 0.0588399 0
-0.0148171 0.0540693 0
-0.014733 0.0491016 0
-0.0171961 0.0438134 0
-0.0187221 0.039152 0
-0.019446 0.0348205 0
-0.0195242 0.0306853 0
-0.0191038 0.0267005 0
-0.0183036 0.0228672 0
-0.0172112 0.0192096 0
-0.015886 0.0157607 0
-0.014366 0.0125554 0
-0.0126742 0.00962835 0
-0.0108256 0.00701327 0
-0.00883358 0.00474452 0
-0.00671624 0.00286008 0
-0.0045032 0.00140572 0
-0.00224182 0.000438011 0
-0.0121625 0.0589379 0
-0.0109229 0.0549213 0
-0.00997704 0.0505596 0
-0.00964046 0.0460919 0
-0.0126424 0.0413086 0
-0.0144619 0.0370585 0
-0.0153515 0.0330436 0
-0.015552 0.0291484 0
-0.0152587 0.0253519 0
-0.0146129 0.0216769 0
-0.0137108 0.0181631 0
-0.0126133 0.014853 0
-0.0113574 0.0117867 0
-0.00996445 0.00900033 0
-0.00844872 0.00652662 0
-0.00682466 0.00439625 0
-0.00511482 0.0026407 0
-0.00335839 0.0012959 0
-0.00162055 0.000405109 0
-0.00839989 0.0528343 0
-0.00692083 0.0492931 0
-0.00575255 0.045583 0
-0.0052412 0.0419029 0
-0.00866736 0.0377966 0
-0.0106379 0.0340701 0
-0.0115778 0.0304443 0
-0.011827 0.0268525 0
-0.0116202 0.0233126 0
-0.01111 0.0198715 0
-0.0103913 0.0165821 0
-0.00952064 0.0134932 0
-0.00852962 0.0106466 0
-0.00743545 0.0080778 0
-0.00624926 0.00581665 0
-0.00498416 0.00388913 0
-0.00366392 0.0023193 0
-0.00233325 0.00113193 0
-0.0010702 0.000354052 0
-0.00513186 0.044872 0
-0.00360274 0.0419977 0
-0.00239394 0.0392346 0
-0.00180987 0.0365899 0
-0.00543086 0.0333102 0
-0.00733275 0.030151 0
-0.00818939 0.0269492 0
-0.00841814 0.0237169 0
-0.00826621 0.0205109 0
-0.00787891 0.0173954 0
-0.00733947 0.0144286 0
-0.00669346 0.0116588 0
-0.00596414 0.00912511 0
-0.00516264 0.00685901 0
-0.0042956 0.00488608 0
-0.00337268 0.00322696 0
-0.00241545 0.00189826 0
-0.00146891 0.000913757 0
-0.000616404 0.000283622 0
-0.00243063 0.0350718 0
-0.00129273 0.0331386 0
-0.000332294 0.0316511 0
0.000386783 0.0305345 0
-0.00296942 0.0277943 0
-0.00455901 0.025142 0
-0.00523239 0.0224027 0
-0.00539991 0.0196157 0
-0.00528798 0.016856 0
-0.00501823 0.014191 0
-0.0046536 0.0116735 0
-0.0042249 0.00934346 0
-0.00374565 0.00723189 0
-0.00322069 0.00536349 0
-0.00265205 0.00375831 0
-0.00204477 0.00243189 0
-0.00141478 0.00139438 0
-0.000801176 0.000650092 0
-0.000282191 0.00019557 0
-0.000747695 0.0242525 0
-8.68331e-05 0.023402 0
0.000573864 0.0228612 0
0.00132179 0.0225757 0