<?xml version="1.0"?>
<VTKFile type="UnstructuredGrid">
  <UnstructuredGrid>
  <Piece NumberOfPoints="5412"  NumberOfCells="2638">
    <Points>
      <DataArray type="Float64" NumberOfComponents="3" format="ascii">
8.5 7.5 0.1
9 8 0.1
8.5 8.5 0.1
8 8 0.1
8.5 6 0.1
10.5 8 0.1
8.5 10 0.1
6.5 8 0.1
8.5 5 0.1
11.5 8 0.1
8.5 11 0.1
5.5 8 0.1
8.53923 7.50154 0.1
8.57822 7.50616 0.1
8.61672 7.51382 0.1
8.65451 7.52447 0.1
8.69134 7.53806 0.1
8.727 7.5545 0.1
8.76125 7.57368 0.1
8.79389 7.59549 0.1
8.82472 7.6198 0.1
8.85355 7.64645 0.1
8.8802 7.67528 0.1
8.90451 7.70611 0.1
8.92632 7.73875 0.1
8.9455 7.773 0.1
8.96194 7.80866 0.1
8.97553 7.84549 0.1
8.98618 7.88328 0.1
8.99384 7.92178 0.1
8.99846 7.96077 0.1
8.51963 7.50039 0.1
8.55877 7.50347 0.1
8.59755 7.50961 0.1
8.63572 7.51877 0.1
8.67306 7.5309 0.1
8.70933 7.54593 0.1
8.74431 7.56375 0.1
8.77779 7.58427 0.1
8.80955 7.60734 0.1
8.8394 7.63284 0.1
8.86716 7.6606 0.1
8.89266 7.69045 0.1
8.91573 7.72221 0.1
8.93625 7.75569 0.1
8.95407 7.79067 0.1
8.9691 7.82694 0.1
8.98123 7.86428 0.1
8.99039 7.90245 0.1
8.99653 7.94123 0.1
8.99961 7.98037 0.1
8.99846 8.03923 0.1
8.99384 8.07822 0.1
8.98618 8.11672 0.1
8.97553 8.15451 0.1
8.96194 8.19134 0.1
8.9455 8.227 0.1
8.92632 8.26125 0.1
8.90451 8.29389 0.1
8.8802 8.32472 0.1
8.85355 8.35355 0.1
8.82472 8.3802 0.1
8.79389 8.40451 0.1
8.76125 8.42632 0.1
8.727 8.4455 0.1
8.69134 8.46194 0.1
8.65451 8.47553 0.1
8.61672 8.48618 0.1
8.57822 8.49384 0.1
8.53923 8.49846 0.1
8.99961 8.01963 0.1
8.99653 8.05877 0.1
8.99039 8.09755 0.1
8.98123 8.13572 0.1
8.9691 8.17306 0.1
8.95407 8.20933 0.1
8.93625 8.24431 0.1
8.91573 8.27779 0.1
8.89266 8.30955 0.1
8.86716 8.3394 0.1
8.8394 8.36716 0.1
8.80955 8.39266 0.1
8.77779 8.41573 0.1
8.74431 8.43625 0.1
8.70933 8.45407 0.1
8.67306 8.4691 0.1
8.63572 8.48123 0.1
8.59755 8.49039 0.1
8.55877 8.49653 0.1
8.51963 8.49961 0.1
8.46077 8.49846 0.1
8.42178 8.49384 0.1
8.38328 8.48618 0.1
8.34549 8.47553 0.1
8.30866 8.46194 0.1
8.273 8.4455 0.1
8.23875 8.42632 0.1
8.20611 8.40451 0.1
8.17528 8.3802 0.1
8.14645 8.35355 0.1
8.1198 8.32472 0.1
8.09549 8.29389 0.1
8.07368 8.26125 0.1
8.0545 8.227 0.1
8.03806 8.19134 0.1
8.02447 8.15451 0.1
8.01382 8.11672 0.1
8.00616 8.07822 0.1
8.00154 8.03923 0.1
8.48037 8.49961 0.1
8.44123 8.49653 0.1
8.40245 8.49039 0.1
8.36428 8.48123 0.1
8.32694 8.4691 0.1
8.29067 8.45407 0.1
8.25569 8.43625 0.1
8.22221 8.41573 0.1
8.19045 8.39266 0.1
8.1606 8.36716 0.1
8.13284 8.3394 0.1
8.10734 8.30955 0.1
8.08427 8.27779 0.1
8.06375 8.24431 0.1
8.04593 8.20933 0.1
8.0309 8.17306 0.1
8.01877 8.13572 0.1
8.00961 8.09755 0.1
8.00347 8.05877 0.1
8.00039 8.01963 0.1
8.00154 7.96077 0.1
8.00616 7.92178 0.1
8.01382 7.88328 0.1
8.02447 7.84549 0.1
8.03806 7.80866 0.1
8.0545 7.773 0.1
8.07368 7.73875 0.1
8.09549 7.70611 0.1
8.1198 7.67528 0.1
8.14645 7.64645 0.1
8.17528 7.6198 0.1
8.20611 7.59549 0.1
8.23875 7.57368 0.1
8.273 7.5545 0.1
8.30866 7.53806 0.1
8.34549 7.52447 0.1
8.38328 7.51382 0.1
8.42178 7.50616 0.1
8.46077 7.50154 0.1
8.00039 7.98037 0.1
8.00347 7.94123 0.1
8.00961 7.90245 0.1
8.01877 7.86428 0.1
8.0309 7.82694 0.1
8.04593 7.79067 0.1
8.06375 7.75569 0.1
8.08427 7.72221 0.1
8.10734 7.69045 0.1
8.13284 7.6606 0.1
8.1606 7.63284 0.1
8.19045 7.60734 0.1
8.22221 7.58427 0.1
8.25569 7.56375 0.1
8.29067 7.54593 0.1
8.32694 7.5309 0.1
8.36428 7.51877 0.1
8.40245 7.50961 0.1
8.44123 7.50347 0.1
8.48037 7.50039 0.1
8.72393 6.01258 0.1
8.94504 6.05014 0.1
9.16056 6.11223 0.1
9.36777 6.19806 0.1
9.56406 6.30655 0.1
9.74698 6.43634 0.1
9.91421 6.58579 0.1
10.0637 6.75302 0.1
10.1934 6.93594 0.1
10.3019 7.13223 0.1
10.3878 7.33944 0.1
10.4499 7.55496 0.1
10.4874 7.77607 0.1
8.61214 6.00315 0.1
8.83501 6.02826 0.1
9.05367 6.07817 0.1
9.26537 6.15224 0.1
9.46744 6.24955 0.1
9.65734 6.36888 0.1
9.83269 6.50872 0.1
9.99128 6.66731 0.1
10.1311 6.84266 0.1
10.2504 7.03256 0.1
10.3478 7.23463 0.1
10.4218 7.44633 0.1
10.4717 7.66499 0.1
10.4969 7.88786 0.1
10.4874 8.22393 0.1
10.4499 8.44504 0.1
10.3878 8.66056 0.1
10.3019 8.86777 0.1
10.1934 9.06406 0.1
10.0637 9.24698 0.1
9.91421 9.41421 0.1
9.74698 9.56366 0.1
9.56406 9.69345 0.1
9.36777 9.80194 0.1
9.16056 9.88777 0.1
8.94504 9.94986 0.1
8.72393 9.98742 0.1
10.4969 8.11214 0.1
10.4717 8.33501 0.1
10.4218 8.55367 0.1
10.3478 8.76537 0.1
10.2504 8.96744 0.1
10.1311 9.15734 0.1
9.99128 9.33269 0.1
9.83269 9.49128 0.1
9.65734 9.63112 0.1
9.46744 9.75045 0.1
9.26537 9.84776 0.1
9.05367 9.92183 0.1
8.83501 9.97174 0.1
8.61214 9.99685 0.1
8.27607 9.98742 0.1
8.05496 9.94986 0.1
7.83944 9.88777 0.1
7.63223 9.80194 0.1
7.43594 9.69345 0.1
7.25302 9.56366 0.1
7.08579 9.41421 0.1
6.93634 9.24698 0.1
6.80655 9.06406 0.1
6.69806 8.86777 0.1
6.61223 8.66056 0.1
6.55014 8.44504 0.1
6.51258 8.22393 0.1
8.38786 9.99685 0.1
8.16499 9.97174 0.1
7.94633 9.92183 0.1
7.73463 9.84776 0.1
7.53256 9.75045 0.1
7.34266 9.63112 0.1
7.16731 9.49128 0.1
7.00872 9.33269 0.1
6.86888 9.15734 0.1
6.74955 8.96744 0.1
6.65224 8.76537 0.1
6.57817 8.55367 0.1
6.52826 8.33501 0.1
6.50315 8.11214 0.1
6.51258 7.77607 0.1
6.55014 7.55496 0.1
6.61223 7.33944 0.1
6.69806 7.13223 0.1
6.80655 6.93594 0.1
6.93634 6.75302 0.1
7.08579 6.58579 0.1
7.25302 6.43634 0.1
7.43594 6.30655 0.1
7.63223 6.19806 0.1
7.83944 6.11223 0.1
8.05496 6.05014 0.1
8.27607 6.01258 0.1
6.50315 7.88786 0.1
6.52826 7.66499 0.1
6.57817 7.44633 0.1
6.65224 7.23463 0.1
6.74955 7.03256 0.1
6.86888 6.84266 0.1
7.00872 6.66731 0.1
7.16731 6.50872 0.1
7.34266 6.36888 0.1
7.53256 6.24955 0.1
7.73463 6.15224 0.1
7.94633 6.07817 0.1
8.16499 6.02826 0.1
8.38786 6.00315 0.1
8.83589 5.01886 0.1
9.16756 5.07522 0.1
9.49084 5.16835 0.1
9.80165 5.29709 0.1
10.0961 5.45983 0.1
10.3705 5.65451 0.1
10.6213 5.87868 0.1
10.8455 6.12953 0.1
11.0402 6.4039 0.1
11.2029 6.69835 0.1
11.3316 7.00916 0.1
11.4248 7.33244 0.1
11.4811 7.66411 0.1
8.66821 5.00472 0.1
9.00252 5.04239 0.1
9.33051 5.11725 0.1
9.64805 5.22836 0.1
9.95116 5.37433 0.1
10.236 5.55332 0.1
10.499 5.76307 0.1
10.7369 6.00096 0.1
10.9467 6.26399 0.1
11.1257 6.54884 0.1
11.2716 6.85195 0.1
11.3828 7.16949 0.1
11.4576 7.49748 0.1
11.4953 7.83179 0.1
11.4811 8.33589 0.1
11.4248 8.66756 0.1
11.3316 8.99084 0.1
11.2029 9.30165 0.1
11.0402 9.5961 0.1
10.8455 9.87047 0.1
10.6213 10.1213 0.1
10.3705 10.3455 0.1
10.0961 10.5402 0.1
9.80165 10.7029 0.1
9.49084 10.8316 0.1
9.16756 10.9248 0.1
8.83589 10.9811 0.1
11.4953 8.16821 0.1
11.4576 8.50252 0.1
11.3828 8.83051 0.1
11.2716 9.14805 0.1
11.1257 9.45116 0.1
10.9467 9.73601 0.1
10.7369 9.99904 0.1
10.499 10.2369 0.1
10.236 10.4467 0.1
9.95116 10.6257 0.1
9.64805 10.7716 0.1
9.33051 10.8828 0.1
9.00252 10.9576 0.1
8.66821 10.9953 0.1
8.16411 10.9811 0.1
7.83244 10.9248 0.1
7.50916 10.8316 0.1
7.19835 10.7029 0.1
6.9039 10.5402 0.1
6.62953 10.3455 0.1
6.37868 10.1213 0.1
6.15451 9.87047 0.1
5.95983 9.5961 0.1
5.79709 9.30165 0.1
5.66835 8.99084 0.1
5.57522 8.66756 0.1
5.51886 8.33589 0.1
8.33179 10.9953 0.1
7.99748 10.9576 0.1
7.66949 10.8828 0.1
7.35195 10.7716 0.1
7.04884 10.6257 0.1
6.76399 10.4467 0.1
6.50096 10.2369 0.1
6.26307 9.99904 0.1
6.05332 9.73601 0.1
5.87433 9.45116 0.1
5.72836 9.14805 0.1
5.61725 8.83051 0.1
5.54239 8.50252 0.1
5.50472 8.16821 0.1
5.51886 7.66411 0.1
5.57522 7.33244 0.1
5.66835 7.00916 0.1
5.79709 6.69835 0.1
5.95983 6.4039 0.1
6.15451 6.12953 0.1
6.37868 5.87868 0.1
6.62953 5.65451 0.1
6.9039 5.45983 0.1
7.19835 5.29709 0.1
7.50916 5.16835 0.1
7.83244 5.07522 0.1
8.16411 5.01886 0.1
5.50472 7.83179 0.1
5.54239 7.49748 0.1
5.61725 7.16949 0.1
5.72836 6.85195 0.1
5.87433 6.54884 0.1
6.05332 6.26399 0.1
6.26307 6.00096 0.1
6.50096 5.76307 0.1
6.76399 5.55332 0.1
7.04884 5.37433 0.1
7.35195 5.22836 0.1
7.66949 5.11725 0.1
7.99748 5.04239 0.1
8.33179 5.00472 0.1
8.5 6.1 0.1
8.5 6.2 0.1
8.5 6.3 0.1
8.5 6.4 0.1
8.5 6.5 0.1
8.5 6.6 0.1
8.5 6.7 0.1
8.5 6.8 0.1
8.5 6.9 0.1
8.5 7 0.1
8.5 7.1 0.1
8.5 7.2 0.1
8.5 7.3 0.1
8.5 7.4 0.1
8.5 6.05 0.1
8.5 6.15 0.1
8.5 6.25 0.1
8.5 6.35 0.1
8.5 6.45 0.1
8.5 6.55 0.1
8.5 6.65 0.1
8.5 6.75 0.1
8.5 6.85 0.1
8.5 6.95 0.1
8.5 7.05 0.1
8.5 7.15 0.1
8.5 7.25 0.1
8.5 7.35 0.1
8.5 7.45 0.1
9.1 8 0.1
9.2 8 0.1
9.3 8 0.1
9.4 8 0.1
9.5 8 0.1
9.6 8 0.1
9.7 8 0.1
9.8 8 0.1
9.9 8 0.1
10 8 0.1
10.1 8 0.1
10.2 8 0.1
10.3 8 0.1
10.4 8 0.1
9.05 8 0.1
9.15 8 0.1
9.25 8 0.1
9.35 8 0.1
9.45 8 0.1
9.55 8 0.1
9.65 8 0.1
9.75 8 0.1
9.85 8 0.1
9.95 8 0.1
10.05 8 0.1
10.15 8 0.1
10.25 8 0.1
10.35 8 0.1
10.45 8 0.1
8.5 8.6 0.1
8.5 8.7 0.1
8.5 8.8 0.1
8.5 8.9 0.1
8.5 9 0.1
8.5 9.1 0.1
8.5 9.2 0.1
8.5 9.3 0.1
8.5 9.4 0.1
8.5 9.5 0.1
8.5 9.6 0.1
8.5 9.7 0.1
8.5 9.8 0.1
8.5 9.9 0.1
8.5 8.55 0.1
8.5 8.65 0.1
8.5 8.75 0.1
8.5 8.85 0.1
8.5 8.95 0.1
8.5 9.05 0.1
8.5 9.15 0.1
8.5 9.25 0.1
8.5 9.35 0.1
8.5 9.45 0.1
8.5 9.55 0.1
8.5 9.65 0.1
8.5 9.75 0.1
8.5 9.85 0.1
8.5 9.95 0.1
6.6 8 0.1
6.7 8 0.1
6.8 8 0.1
6.9 8 0.1
7 8 0.1
7.1 8 0.1
7.2 8 0.1
7.3 8 0.1
7.4 8 0.1
7.5 8 0.1
7.6 8 0.1
7.7 8 0.1
7.8 8 0.1
7.9 8 0.1
6.55 8 0.1
6.65 8 0.1
6.75 8 0.1
6.85 8 0.1
6.95 8 0.1
7.05 8 0.1
7.15 8 0.1
7.25 8 0.1
7.35 8 0.1
7.45 8 0.1
7.55 8 0.1
7.65 8 0.1
7.75 8 0.1
7.85 8 0.1
7.95 8 0.1
8.5 5.33333 0.1
8.5 5.66667 0.1
8.5 5.16667 0.1
8.5 5.5 0.1
8.5 5.83333 0.1
10.8333 8 0.1
11.1667 8 0.1
10.6667 8 0.1
11 8 0.1
11.3333 8 0.1
8.5 10.3333 0.1
8.5 10.6667 0.1
8.5 10.1667 0.1
8.5 10.5 0.1
8.5 10.8333 0.1
5.83333 8 0.1
6.16667 8 0.1
5.66667 8 0.1
6 8 0.1
6.33333 8 0.1
9.42912 7.36778 0.1
8.98107 7.14335 0.1
9.12034 7.43554 0.1
9.01433 6.66213 0.1
9.17936 7.68419 0.1
9.85922 7.57796 0.1
8.76256 7.28829 0.1
9.38426 6.90812 0.1
8.92185 7.46489 0.1
9.02088 7.58931 0.1
9.52889 7.66584 0.1
8.77428 6.9572 0.1
9.79217 7.11621 0.1
9.14334 7.82286 0.1
9.23019 7.21456 0.1
8.76547 7.42416 0.1
8.78426 6.45 0.1
10.05 7.73427 0.1
9.02751 7.71032 0.1
9.75 7.78105 0.1
8.64858 7.43517 0.1
9.37911 7.79108 0.1
9.35145 7.59348 0.1
8.67575 6.75137 0.1
8.82688 7.51565 0.1
8.89755 7.56932 0.1
9.00894 6.90235 0.1
9.31754 6.58936 0.1
8.99619 7.31062 0.1
8.67317 7.1143 0.1
8.70809 6.25 0.1
10.2334 7.80568 0.1
9.45268 7.13775 0.1
[...]
    <PointData>
      <DataArray type="Float64" NumberOfComponents="3" Name="Velocity" format="ascii">
0 0 0
0 0 0
0 0 0
0 0 0
1.0463 0.00246102 0
0.940424 7.3773e-06 0
1.04692 -0.0029542 0
0.938668 1.68057e-05 0
1.03203 -0.000370995 0
0.973684 -1.33822e-06 0
1.03162 0.000315933 0
0.975712 -3.93471e-05 0
0 0 0
0 0 0
0 0 0
0 0 0
0 0 0
0 0 0
0 0 0
0 0 0
0 0 0
0 0 0
0 0 0
0 0 0
0 0 0
0 0 0
0 0 0
0 0 0
0 0 0
0 0 0
0 0 0
0 0 0
0 0 0
0 0 0
0 0 0
0 0 0
0 0 0
0 0 0
0 0 0
0 0 0
0 0 0
0 0 0
0 0 0
0 0 0
0 0 0
0 0 0
0 0 0
0 0 0
0 0 0
0 0 0
0 0 0
0 0 0
0 0 0
0 0 0
0 0 0
0 0 0
0 0 0
0 0 0
0 0 0
0 0 0
0 0 0
0 0 0
0 0 0
0 0 0
0 0 0
0 0 0
0 0 0
0 0 0
0 0 0
0 0 0
0 0 0
0 0 0
0 0 0
0 0 0
0 0 0
0 0 0
0 0 0
0 0 0
0 0 0
0 0 0
0 0 0
0 0 0
0 0 0
0 0 0
0 0 0
0 0 0
0 0 0
0 0 0
0 0 0
0 0 0
0 0 0
0 0 0
0 0 0
0 0 0
0 0 0
0 0 0
0 0 0
0 0 0
0 0 0
0 0 0
0 0 0
0 0 0
0 0 0
0 0 0
0 0 0
0 0 0
0 0 0
0 0 0
0 0 0
0 0 0
0 0 0
0 0 0
0 0 0
0 0 0
0 0 0
0 0 0
0 0 0
0 0 0
0 0 0
0 0 0
0 0 0
0 0 0
0 0 0
0 0 0
0 0 0
0 0 0
0 0 0
0 0 0
0 0 0
0 0 0
0 0 0
0 0 0
0 0 0
0 0 0
0 0 0
0 0 0
0 0 0
0 0 0
0 0 0
0 0 0
0 0 0
0 0 0
0 0 0
0 0 0
0 0 0
0 0 0
0 0 0
0 0 0
0 0 0
0 0 0
0 0 0
0 0 0
0 0 0
0 0 0
0 0 0
0 0 0
0 0 0
0 0 0
0 0 0
0 0 0
0 0 0
0 0 0
0 0 0
0 0 0
0 0 0
0 0 0
0 0 0
0 0 0
1.05204 0.0128871 0
1.05098 0.0244779 0
1.04866 0.0364985 0
1.04145 0.0492349 0
1.02986 0.0574942 0
1.01671 0.0628895 0
1.0032 0.0639084 0
0.991808 0.0605184 0
0.977818 0.0569894 0
0.963548 0.0511905 0
0.952456 0.0422386 0
0.944737 0.0296229 0
0.941259 0.0148541 0
1.04976 0.00557959 0
1.05163 0.0189966 0
1.04992 0.0313308 0
1.046 0.0434311 0
1.03627 0.0531035 0
1.02368 0.0602448 0
1.0108 0.0640848 0
0.996581 0.0642085 0
0.982803 0.0606385 0
0.969082 0.0552061 0
0.956936 0.0473015 0
0.948223 0.0361027 0
0.942484 0.0224542 0
0.939605 0.00790313 0
0.94121 -0.0148838 0
0.944701 -0.0295359 0
0.952352 -0.0421142 0
0.963747 -0.0509295 0
0.978168 -0.0572383 0
0.990802 -0.0603111 0
1.00433 -0.0650259 0
1.01797 -0.0629668 0
1.03053 -0.0580132 0
1.04135 -0.048468 0
1.04967 -0.0381238 0
1.05337 -0.0259718 0
1.05081 -0.0129698 0
0.939599 -0.00788817 0
0.942487 -0.0225376 0
0.948248 -0.0361304 0
0.956894 -0.0472455 0
0.968727 -0.0552086 0
0.982788 -0.0603813 0
0.997627 -0.064516 0
1.01144 -0.0651617 0
1.02487 -0.0614137 0
1.03759 -0.0537657 0
1.04714 -0.0437258 0
1.05179 -0.0316543 0
1.05283 -0.0192867 0
1.05002 -0.00526929 0
1.04671 0.0116093 0
1.04342 0.0230678 0
1.03797 0.0343373 0
1.02927 0.0438102 0
1.01792 0.0485815 0
1.00657 0.0510924 0
0.996109 0.0546228 0
0.983847 0.0576521 0
0.971285 0.0553343 0
0.960384 0.0469402 0
0.95218 0.0351066 0
0.945002 0.0223812 0
0.940421 0.0110338 0
1.04693 0.00474753 0
1.04599 0.0165963 0
1.04101 0.0294991 0
1.03312 0.0406892 0
1.02347 0.0477933 0
1.01207 0.0499357 0
1.00178 0.0526466 0
0.989289 0.0569138 0
0.97674 0.0579859 0
0.964659 0.0520954 0
0.955813 0.0414324 0
0.948735 0.0287394 0
0.942659 0.0166279 0
0.938938 0.00567489 0
0.940482 -0.0109854 0
0.945099 -0.0223327 0
0.952157 -0.0351862 0
0.960385 -0.0468873 0
0.970723 -0.0553685 0
0.983754 -0.0576913 0
0.996165 -0.0548452 0
1.00686 -0.0507622 0
1.01714 -0.0487315 0
1.0287 -0.0439292 0
1.03845 -0.0342077 0
1.04384 -0.022661 0
1.04703 -0.0113794 0
0.938933 -0.00567677 0
0.942598 -0.0166227 0
0.948693 -0.0287398 0
0.955822 -0.0413751 0
0.96478 -0.0521151 0
0.976839 -0.0577374 0
0.989719 -0.0571503 0
1.00117 -0.0525036 0
1.01221 -0.0498835 0
1.0229 -0.0471861 0
1.03345 -0.0408013 0
1.04114 -0.029593 0
1.04566 -0.0168425 0
1.04738 -0.00450732 0
1.03197 0.00604295 0
1.02921 0.0121964 0
1.02588 0.0176698 0
1.02125 0.0220364 0
1.01555 0.0255482 0
1.00888 0.0279529 0
1.00304 0.0286191 0
0.997081 0.0277133 0
0.990422 0.0258103 0
0.985037 0.0222435 0
0.98074 0.0175596 0
0.976868 0.0121807 0
0.9743 0.00658074 0
1.0321 0.00298803 0
1.03062 0.00891686 0
1.02777 0.0150359 0
1.02403 0.0199269 0
1.01879 0.0238511 0
1.01252 0.0268429 0
1.00607 0.0285255 0
1.00027 0.0282294 0
0.993787 0.026856 0
0.987548 0.0242263 0
0.982856 0.01997 0
0.978712 0.0149089 0
0.975371 0.00953218 0
0.97379 0.00348816 0
0.974293 -0.00657115 0
0.976852 -0.0121656 0
0.980726 -0.0175325 0
0.985074 -0.0222903 0
0.990403 -0.0257319 0
0.997048 -0.0276273 0
1.00307 -0.028608 0
1.00899 -0.0279214 0
1.01571 -0.0255325 0
1.02137 -0.022055 0
1.02578 -0.0176403 0
1.02906 -0.0122604 0
1.0316 -0.0060138 0
0.973787 -0.0034772 0
0.975381 -0.00951242 0
0.978714 -0.0148873 0
0.982924 -0.0199509 0
0.987578 -0.0241848 0
0.993765 -0.0268768 0
1.00025 -0.0282229 0
1.00597 -0.0284996 0
1.01246 -0.026872 0
1.01873 -0.0238931 0
1.02382 -0.0199395 0
1.02792 -0.0151152 0
1.03053 -0.00912737 0
1.0318 -0.00288509 0
1.03024 0.00669849 0
1.02753 0.0125127 0
1.02456 0.0173485 0
1.0208 0.0219942 0
1.01526 0.0258801 0
1.00901 0.0278846 0
1.00317 0.028336 0
0.996708 0.0271482 0
0.990695 0.0251478 0
0.985514 0.0239969 0
0.980117 0.0206443 0
0.97667 0.0144448 0
0.975915 0.00687845 0
1.03103 0.00378826 0
1.02879 0.00950484 0
1.02628 0.0149435 0
1.02312 0.0197949 0
1.0183 0.0241205 0
1.01218 0.0269952 0
1.00602 0.0282085 0
1.00002 0.0276853 0
0.993679 0.0257971 0
0.988315 0.0244597 0
0.982956 0.0226066 0
0.97798 0.0178048 0
0.976108 0.0107257 0
0.975801 0.00340417 0
0.975874 -0.00693051 0
0.976564 -0.0145075 0
0.980085 -0.0206538 0
0.985627 -0.0240533 0
0.990688 -0.0253248 0
0.996571 -0.0270799 0
1.00289 -0.0280652 0
1.00897 -0.0278946 0
1.01525 -0.0258489 0
1.02105 -0.0220736 0
1.02491 -0.0175442 0
1.02736 -0.0124452 0
1.03036 -0.00691207 0
0.975787 -0.00343058 0
0.976142 -0.0108178 0
0.978069 -0.017842 0
0.983116 -0.0224748 0
0.988387 -0.0244858 0
0.993691 -0.0258706 0
0.999933 -0.0276264 0
1.00599 -0.0281873 0
1.01209 -0.0269875 0
1.01828 -0.0240607 0
1.02311 -0.0197532 0
1.02618 -0.0150993 0
1.029 -0.00951176 0
1.03127 -0.00357902 0
1.0829 -0.00118289 0
1.09116 -0.000700962 0
1.1015 -0.000778151 0
1.11372 -0.0011628 0
1.12815 -0.00157253 0
1.14612 -0.00200884 0
1.16842 -0.00264426 0
1.19631 -0.00343489 0
1.23248 -0.00463 0
1.28033 -0.00642867 0
1.34438 -0.0099713 0
1.43346 -0.0160296 0
1.57114 -0.0317656 0
1.68191 -0.0289542 0
1.07763 0.000407335 0
1.08745 -0.000478578 0
1.0964 -0.000849761 0
1.10732 -0.00106602 0
1.12058 -0.00134602 0
1.13669 -0.00177345 0
1.15653 -0.00229218 0
1.18136 -0.00299824 0
1.21312 -0.00397587 0
1.25435 -0.00539702 0
1.30914 -0.00778751 0
1.38552 -0.0120522 0
1.49354 -0.0189138 0
1.65099 -0.0477095 0
1.83236 -0.124781 0
0.22218 0.0024291 0
0.438148 -0.000257446 0
0.570383 0.000120057 0
0.664053 0.000120602 0
0.730547 5.35388e-05 0
0.778505 4.76432e-05 0
0.81584 0.000126672 0
0.844291 0.000106701 0
0.867036 3.20784e-05 0
0.885085 3.31973e-05 0
0.900188 2.66803e-05 0
0.912639 2.64585e-05 0
0.922999 1.54408e-05 0
0.932186 1.43444e-05 0
0.0681327 -0.000979937 0
0.344283 -0.00164598 0
0.510724 0.000357985 0
0.621054 0.000300484 0
0.699696 0.000134669 0
0.756234 0.000106504 0
0.798297 0.000100153 0
0.830899 6.0203e-05 0
0.856271 2.33814e-05 0
0.876535 3.35461e-05 0
0.89298 2.81068e-05 0
0.90666 2.99287e-05 0
0.918032 1.60702e-05 0
0.927784 1.593e-05 0
0.93634 2.36274e-05 0
1.71737 0.0409865 0
1.58282 0.0343983 0
1.4321 0.0154607 0
1.34453 0.00910128 0
1.28076 0.00670629 0
1.23249 0.00462742 0
1.19646 0.00336377 0
1.16862 0.00268784 0
1.14622 0.00206582 0
1.12819 0.00157083 0
1.11373 0.00117979 0
1.10164 0.00063607 0
1.09129 0.000487427 0
1.08291 0.00124241 0
1.82519 0.134921 0
1.6368 0.0299005 0
1.49407 0.0177275 0
1.38617 0.0116935 0
1.30849 0.00788064 0
1.25433 0.0054603 0
1.21312 0.00398382 0
1.18123 0.00304729 0
1.15647 0.002319 0
1.13671 0.00180761 0
1.1206 0.00132851 0
1.10739 0.00100083 0
1.0963 0.000635254 0
1.08746 0.000561298 0
1.07702 -0.000388914 0
0.932594 5.51839e-06 0
0.924714 -6.55594e-06 0
0.914918 -6.3727e-07 0
0.903172 -3.1995e-06 0
0.88866 -3.0525e-06 0
0.871223 -3.28977e-06 0
0.849374 -3.92656e-06 0
0.822502 -5.09147e-06 0
0.787299 -6.72703e-06 0
0.742124 -8.85459e-06 0
0.679721 -1.13545e-05 0
0.594792 -1.14005e-05 0
0.473623 1.95232e-05 0
0.275275 0.000133168 0
0.935855 1.26803e-05 0
0.928866 6.2426e-08 0
0.920062 -2.91654e-06 0
0.909308 -2.26383e-06 0
0.896278 -4.33416e-06 0
0.880406 -2.94079e-06 0
0.860948 -3.34334e-06 0
0.836776 -4.41955e-06 0
0.806084 -5.79279e-06 0
0.766308 -7.67101e-06 0
0.713338 -1.04297e-05 0
0.640694 -1.46968e-05 0
0.540007 -2.70954e-05 0
0.385943 -5.35125e-05 0
0.151833 -0.000256098 0
1.0405 -0.000883905 0
1.05712 -0.000890808 0
1.0347 -0.0006601 0
1.04723 -0.000886216 0
1.04747 -0.000758315 0
0.954288 1.52153e-05 0
0.965931 5.26306e-06 0
0.947668 5.80677e-06 0
0.960854 7.63539e-06 0
0.970043 8.20228e-06 0
1.05747 0.00167258 0
1.04008 0.000733813 0
1.04716 0.000732206 0
1.04743 0.000779564 0
1.03486 0.000464408 0
0.966246 -2.80309e-05 0
0.952801 2.48195e-05 0
0.971492 4.60841e-06 0
0.959749 -2.36185e-06 0
0.945973 -9.38487e-06 0
0.929932 0.203294 0
1.15887 0.241018 0
0.976437 0.38847 0
1.1071 0.0878227 0
0.695219 0.383894 0
0.895817 0.0774077 0
1.38664 0.308987 0
1.03774 0.135234 0
1.1288 0.553046 0
0.884083 0.608676 0
0.817789 0.140024 0
1.21449 0.112529 0
0.967648 0.104288 0
0.469279 0.33253 0
1.02745 0.237459 0
1.37239 0.509658 0
1.11064 0.037606 0
0.90254 0.0374705 0
0.633477 0.690968 0
0.846352 0.0589629 0
1.93444 0.436934 0
0.704639 0.156036 0
0.815592 0.24418 0
1.17275 0.0446659 0
1.41779 0.805652 0
1.16158 0.832609 0
1.12938 0.141124 0
1.05929 0.0882227 0
1.13049 0.358314 0
1.32167 0.121534 0
1.09319 0.0200995 0
0.91961 0.0203543 0
0.992796 0.165558 0
0.889365 0.139969 0
0.944671 0.0720196 0
1.00549 0.0983105 0
0.886854 0.838699 0
1.28102 0.438554 0
0.926272 0.28237 0
1.08016 0.0561373 0
0.845273 0.423611 0
0.7752 0.0755034 0
1.08473 0.185185 0
0.946355 0.146363 0
0.231609 0.320589 0
0.408272 0.598362 0
0.931301 0.103658 0
1.54523 0.183324 0
1.25997 0.226585 0
1.07758 0.117151 0
0.554941 0.16955 0
1.72745 0.794931 0
1.15166 0.0968958 0
0.933922 0.0451669 0
1.13711 0.0287048 0
0.880041 0.034732 0
1.03885 0.297199 0
0.992754 0.510465 0
1.24031 0.0639274 0
0.87597 0.105129 0
1.18754 0.16572 0
1.28096 0.878087 0
1.12099 0.0190611 0
0.862885 0.171485 0
1.0354 0.178146 0
2.07157 0.165996 0
1.13171 0.060592 0
1.03203 0.0969795 0
1.20725 0.301377 0
0.771035 0.515406 0
0.993867 0.119454 0
0.619803 0.754857 0
0.879296 0.801954 0
0.894154 0.0176508 0
0.735646 0.236849 0
0.787841 0.332438 0
0.527149 0.444028 0
1.10767 0.463064 0
1.07966 0.26101 0
0.986948 0.0814222 0
0.715951 0.0679675 0
0.805664 0.0411498 0
0.96865 0.236567 0
0.775332 0.181937 0
0.967434 0.0833472 0
1.2683 0.506042 0
0.427408 0.665228 0
0.878058 0.0593882 0
1.093 0.0384565 0
1.54538 0.84026 0
0.413078 0.200274 0
1.47422 0.545817 0
0.914897 0.0572236 0
1.21009 0.0302935 0
1.40798 0.0989443 0
1.00617 0.625102 0
1.49189 0.356617 0
0.0868534 0.198012 0
0.191827 0.429659 0
0.590844 0.29117 0
1.08143 0.00966192 0
0.928843 0.0114989 0
1.29911 0.0523462 0
1.08284 0.0754954 0
1.05905 0.0620758 0
0.902768 0.35408 0
0.822893 0.077231 0
1.06696 0.14682 0
1.03404 0.0759644 0
1.1392 0.185189 0
0.864029 0.711119 0
0.842145 0.0285631 0
1.10744 0.0597715 0
0.343263 0.501149 0
1.24892 0.155797 0
0.881535 0.228134 0
1.38082 0.199003 0
1.15704 0.0215585 0
0.98127 0.329722 0
0.907541 0.0115962 0
1.10533 0.0115101 0
1.12722 0.301069 0
0.623551 0.0922189 0
0.757733 0.12356 0
0.902591 0.504723 0
1.59216 0.00595019 0
0.925414 0.0815107 0
1.34145 0.206931 0
0.968492 0.19 0
1.01319 0.771742 0
0.560551 0.616497 0
1.05323 0.374279 0
0.750292 0.683098 0
1.21165 0.70612 0
1.19429 0.0704512 0
1.16452 0.127139 0
1.39019 0.422745 0
1.0201 0.116644 0
0.0318728 0.0558865 0
0.918657 0.00912599 0
1.09521 0.00820149 0
1.01529 0.0799541 0
1.60625 0.159484 0
1.43969 0.6662 0
0.919635 0.159924 0
1.10494 0.113014 0
0.949398 0.0920634 0
1.0068 0.659726 0
0.919492 0.0358662 0
0.192565 0.39774 0
1.08282 0.00601512 0
0.935184 0.00724864 0
0.857663 0.131902 0
1.26584 0.10209 0
0.877677 0.0148784 0
1.20285 0.491643 0
1.10469 0.0254706 0
0.998702 0.201225 0
1.13734 0.01289 0
0.94721 0.0556774 0
0.861743 0.286067 0
0.975002 0.137367 0
1.0502 0.114957 0
0.0742978 0.220118 0
1.12839 0.287445 0
1.01046 0.140567 0
0.906782 0.105677 0
0.995861 0.274776 0
1.7199 0.576825 0
0.932029 0.0272171 0
1.28128 0.327882 0
1.00093 0.079995 0
0.761288 0.0373898 0
0.90849 0.0248425 0
0.923799 0.12855 0
0.948679 0.118511 0
1.07235 0.0415132 0
0.984439 0.0992545 0
0.935354 0.437117 0
1.07977 0.0255357 0
0.641635 0.205262 0
0.86153 0.0204857 0
0.962835 0.0665318 0
0.534799 0.599812 0
1.32132 0.247482 0
0.932741 0.0624214 0
1.49126 0.069936 0
1.18082 0.0180586 0
0.262902 0.167948 0
1.19742 0.391917 0
1.09896 0.149554 0
0.828752 0.194633 0
1.06685 0.216427 0
1.04679 0.068212 0
0.926512 0.238022 0
0.895644 0.0537125 0
1.15776 0.0715043 0
0.932924 0.435471 0
1.14684 0.0452914 0
1.19955 0.21241 0
1.13118 0.0826942 0
1.2257 0.588577 0
0.894662 0.183196 0
0.518937 0.0838602 0
1.17759 0.0961502 0
1.01463 0.437369 0
1.1255 0.0432601 0
0.80098 0.104353 0
1.0879 0.0953491 0
1.10883 0.228208 0
0.507816 0.250132 0
0.771368 0.417069 0
0.862442 0.0792388 0
1.47066 0.262204 0
1.35717 0.0473373 0
1.05871 0.559055 0
1.30004 0.185645 0
0.946409 0.561425 0
1.25179 0.0266574 0
1.1468 0.0753793 0
0.861426 0.0406516 0
1.08567 0.321017 0
0.746661 0.4273 0
1.13005 0.109921 0
0.979006 0.0726888 0
0.646139 0.541009 0
1.15602 0.154799 0
0.896525 0.707151 0
0.699446 0.533951 0
0.840625 0.106277 0
0.946166 0.172105 0
0.682061 0.294703 0
1.08882 0.656211 0
1.06388 0.0530366 0
0.360961 0.405106 0
0.965563 0.16224 0
0.608094 0.761343 0
0.975305 0.0916074 0
0.967066 0.0929278 0
0.976981 0.102102 0
0.304804 0.374997 0
0.378796 0.288966 0
0.336414 0.251322 0
0.977774 0.0835374 0
0.986803 0.0909312 0
0.791152 0.0223752 0
0.809097 0.0198507 0
1.10124 0.0380146 0
1.10056 0.0476935 0
1.10987 0.0485651 0
1.62308 0.0516086 0
1.64566 0.079741 0
0.87618 0.386862 0
0.845269 0.349496 0
0.812152 0.378343 0
0.470233 0.508313 0
0.451685 0.428953 0
0.377651 0.506246 0
0.893171 0.551498 0
0.839145 0.514997 0
0.821869 0.564155 0
1.53725 0.0272853 0
1.58533 0.100537 0
0.877295 0.154631 0
0.878524 0.178351 0
0.890577 0.160458 0
0.897778 0.0279772 0
0.887119 0.0254487 0
0.891907 0.0364838 0
1.10839 0.0732677 0
1.0956 0.0692988 0
1.09421 0.0817559 0
0.769321 0.0174247 0
0.784987 0.0395265 0
0.825184 0.0340072 0
0.828474 0.0157794 0
1.1179 0.00839701 0
1.12526 0.00922327 0
0.889247 0.00931189 0
0.896674 0.00849261 0
1.06773 0.101244 0
1.08373 0.106276 0
1.0721 0.0928263 0
0.878339 0.0466679 0
0.887193 0.0563806 0
0.887171 0.0448416 0
0.898957 0.0450719 0
1.12877 0.0234308 0
1.12406 0.0306371 0
1.13155 0.036414 0
1.91629 0.375142 0
1.85695 0.212974 0
2.01811 0.30582 0
1.07501 0.164329 0
1.05311 0.163014 0
1.05896 0.183789 0
0.939802 0.0378579 0
0.944265 0.0452764 0
1.08755 0.131946 0
1.10372 0.130421 0
1.09089 0.116029 0
1.08298 0.0648842 0
1.09317 0.0583947 0
0.640754 0.344444 0
0.558197 0.359925 0
0.624622 0.418924 0
1.0557 0.101422 0
1.06312 0.117078 0
0.416887 0.361273 0
0.433311 0.268251 0
0.898443 0.121255 0
0.892251 0.106246 0
0.881087 0.122741 0
0.842116 0.0140301 0
1.20396 0.0125278 0
1.22211 0.0142173 0
1.58561 0.170911 0
1.52646 0.118199 0
1.03282 0.265129 0
1.0616 0.279725 0
1.05148 0.250531 0
0.495892 0.389851 0
0.536426 0.311441 0
0.850654 0.237635 0
0.853561 0.213446 0
0.821876 0.217141 0
1.15203 0.00903342 0
1.16339 0.0101095 0
0.761896 0.591157 0
0.82923 0.649616 0
1.14197 0.00580912 0
1.14672 0.0168835 0
0.45652 0.439417 0
0.417945 0.41669 0
1.08789 0.0467596 0
0.907973 0.171109 0
0.903516 0.151193 0
0.688143 0.0376275 0
0.719934 0.0324384 0
1.36171 0.858601 0
1.20258 0.804606 0
1.37139 0.84776 0
1.22959 0.0291113 0
1.24235 0.0101929 0
0.716603 0.197227 0
0.756372 0.207186 0
0.74101 0.171907 0
1.2738 0.272918 0
1.30419 0.288058 0
1.28915 0.237155 0
1.24177 0.316048 0
1.23801 0.266009 0
0.777397 0.243514 0
0.755735 0.285882 0
0.801927 0.283627 0
1.15897 0.522246 0
1.17058 0.57374 0
1.19415 0.531174 0
1.00249 0.471678 0
0.97279 0.43935 0
0.958837 0.473182 0
0.291977 0.374201 0
0.258449 0.349537 0
1.23299 0.500932 0
1.24525 0.542063 0
0.846659 0.182421 0
0.869586 0.199109 0
0.87901 0.320355 0
0.829359 0.309769 0
1.69365 0.271482 0
1.55652 0.263696 0
1.58048 0.378655 0
1.31063 0.75918 0
1.28332 0.810889 0
1.07348 0.131576 0
1.08224 0.149226 0
0.826272 0.782892 0
0.745409 0.796028 0
0.754411 0.821195 0
0.664101 0.128842 0
0.627853 0.148889 0
0.675053 0.178137 0
1.23056 0.86384 0
1.20257 0.774378 0
0.95087 0.306803 0
0.988675 0.300015 0
0.961642 0.281477 0
1.22929 0.0896887 0
1.21563 0.0681211 0
1.20482 0.0895544 0
0.746913 0.358589 0
0.736362 0.31984 0
0.685939 0.338072 0
1.17228 0.332761 0
1.1653 0.296868 0
1.13123 0.320628 0
0.91749 0.467545 0
0.947875 0.510343 0
0.706664 0.109246 0
0.674003 0.0784843 0
0.792172 0.214089 0
0.179043 0.310784 0
0.155322 0.277778 0
1.11763 0.0402788 0
1.11631 0.0288864 0
1.03715 0.154901 0
1.05127 0.141893 0
0.980803 0.255295 0
0.949921 0.25873 0
1.01263 0.173628 0
1.02098 0.158237 0
1.00233 0.152646 0
0.970272 0.119828 0
0.98582 0.128413 0
0.980091 0.112936 0
0.886296 0.0900762 0
0.900057 0.0916552 0
1.11884 0.0607187 0
1.11873 0.069884 0
1.13214 0.0712165 0
1.23848 0.108831 0
1.2526 0.08173 0
1.54319 0.264115 0
1.36719 0.459251 0
1.33002 0.469198 0
1.30898 0.512999 0
0.835205 0.0672254 0
0.843737 0.0789416 0
0.853817 0.0696079 0
0.713843 0.53321 0
0.724268 0.450258 0
0.67309 0.457741 0
1.18101 0.268475 0
1.2073 0.252741 0
1.1804 0.227609 0
0.867219 0.117902 0
0.874082 0.13712 0
1.22784 0.220275 0
0.739806 0.050496 0
0.745129 0.0200561 0
1.204 0.139892 0
1.21686 0.163046 0
1.23102 0.131896 0
1.74204 0.157177 0
1.94539 0.0177487 0
0.830426 0.0923886 0
0.851894 0.0916402 0
0.939978 0.0510934 0
0.95008 0.0493473 0
1.02426 0.139003 0
0.821043 0.166539 0
0.838765 0.157973 0
1.1459 0.264301 0
0.600481 0.191074 0
0.589541 0.126638 0
0.938833 0.029615 0
0.931518 0.0363257 0
0.800599 0.0771364 0
0.812825 0.0600953 0
0.790548 0.0565402 0
0.993872 0.412056 0
0.956876 0.411957 0
1.11356 0.508362 0
1.08017 0.50762 0
1.09438 0.557478 0
0.767155 0.0569444 0
1.04908 0.196696 0
1.03288 0.20503 0
1.04792 0.228287 0
1.10777 0.0312276 0
1.09894 0.0320001 0
0.711139 0.264668 0
1.45851 0.684044 0
1.36502 0.70048 0
0.832223 0.42738 0
0.700088 0.694928 0
0.686923 0.614336 0
0.636577 0.605858 0
0.958653 0.111325 0
0.960452 0.128909 0
0.925914 0.0241813 0
0.929855 0.0195689 0
0.924196 0.0158084 0
0.0717199 0.180621 0
0.0583381 0.155817 0
1.53406 0.558921 0
1.51558 0.424065 0
1.43256 0.427096 0
1.04667 0.083259 0
1.03467 0.0866265 0
1.04555 0.0942567 0
1.01592 0.383585 0
1.01417 0.353292 0
0.978933 0.357399 0
0.62901 0.739365 0
0.540066 0.710887 0
0.508914 0.719809 0
1.11682 0.125888 0
1.11406 0.146226 0
0.713543 0.759994 0
0.622871 0.764056 0
0.908103 0.0478963 0
0.916595 0.0460474 0
0.911519 0.0367643 0
0.888005 0.203771 0
0.973512 0.0775515 0
0.971144 0.0696794 0
0.964874 0.0743796 0
0.788299 0.134187 0
0.763741 0.152976 0
0.798116 0.159054 0
1.05174 0.865677 0
0.876992 0.747167 0
1.10137 0.858785 0
1.16616 0.198987 0
1.14858 0.210371 0
1.01891 0.1907 0
1.01146 0.219086 0
1.01938 0.0989411 0
1.02398 0.0892782 0
1.01348 0.0895453 0
1.04449 0.125003 0
1.03495 0.117295 0
1.02801 0.125886 0
0.732649 0.137813 0
0.734275 0.0979261 0
1.0235 0.535868 0
1.04933 0.489387 0
0.880129 0.0788687 0
0.868048 0.092589 0
1.45895 0.131182 0
1.40035 0.148381 0
1.44634 0.193712 0
1.19071 0.0388609 0
1.1947 0.0236752 0
1.17759 0.0318403 0
1.29648 0.794015 0
1.50635 0.838628 0
1.24716 0.0461039 0
1.22487 0.0455834 0
1.83759 0.463393 0
1.21793 0.257651 0
0.881184 0.00705027 0
0.886287 0.0164037 0
1.04016 0.105622 0
0.811968 0.466183 0
0.870112 0.46378 0
1.08584 0.084604 0
1.07207 0.0835811 0
1.07686 0.200648 0
0.769632 0.462707 0
0.73198 0.403433 0
1.12886 0.0163566 0
1.1329 0.00528488 0
0.691545 0.22586 0
1.11877 0.0859931 0
0.85898 0.151228 0
0.839105 0.136618 0
1.05745 0.129484 0
0.582613 0.498181 0
0.940674 0.0975335 0
0.936882 0.0876602 0
0.927718 0.0920976 0
0.826949 0.0516842 0
1.20369 0.0511356 0
1.16366 0.177582 0
1.19466 0.187389 0
1.06087 0.30973 0
1.08341 0.288821 0