<?xml version="1.0"?>
<VTKFile type="UnstructuredGrid">
  <UnstructuredGrid>
  <Piece NumberOfPoints="3321"  NumberOfCells="1600">
    <Points>
      <DataArray type="Float64" NumberOfComponents="3" format="ascii">
0 0 0.1
1 0 0.1
1 0.5 0.1
0 0.5 0.1
0.025 0 0.1
0.05 0 0.1
0.075 0 0.1
0.1 0 0.1
0.125 0 0.1
0.15 0 0.1
0.175 0 0.1
0.2 0 0.1
0.225 0 0.1
0.25 0 0.1
0.275 0 0.1
0.3 0 0.1
0.325 0 0.1
0.35 0 0.1
0.375 0 0.1
0.4 0 0.1
0.425 0 0.1
0.45 0 0.1
0.475 0 0.1
0.5 0 0.1
0.525 0 0.1
0.55 0 0.1
0.575 0 0.1
0.6 0 0.1
0.625 0 0.1
0.65 0 0.1
0.675 0 0.1
0.7 0 0.1
0.725 0 0.1
0.75 0 0.1
0.775 0 0.1
0.8 0 0.1
0.825 0 0.1
0.85 0 0.1
0.875 0 0.1
0.9 0 0.1
0.925 0 0.1
0.95 0 0.1
0.975 0 0.1
0.0125 0 0.1
0.0375 0 0.1
0.0625 0 0.1
0.0875 0 0.1
0.1125 0 0.1
0.1375 0 0.1
0.1625 0 0.1
0.1875 0 0.1
0.2125 0 0.1
0.2375 0 0.1
0.2625 0 0.1
0.2875 0 0.1
0.3125 0 0.1
0.3375 0 0.1
0.3625 0 0.1
0.3875 0 0.1
0.4125 0 0.1
0.4375 0 0.1
0.4625 0 0.1
0.4875 0 0.1
0.5125 0 0.1
0.5375 0 0.1
0.5625 0 0.1
0.5875 0 0.1
0.6125 0 0.1
0.6375 0 0.1
0.6625 0 0.1
0.6875 0 0.1
0.7125 0 0.1
0.7375 0 0.1
0.7625 0 0.1
0.7875 0 0.1
0.8125 0 0.1
0.8375 0 0.1
0.8625 0 0.1
0.8875 0 0.1
0.9125 0 0.1
0.9375 0 0.1
0.9625 0 0.1
0.9875 0 0.1
1 0.025 0.1
1 0.05 0.1
1 0.075 0.1
1 0.1 0.1
1 0.125 0.1
1 0.15 0.1
1 0.175 0.1
1 0.2 0.1
1 0.225 0.1
1 0.25 0.1
1 0.275 0.1
1 0.3 0.1
1 0.325 0.1
1 0.35 0.1
1 0.375 0.1
1 0.4 0.1
1 0.425 0.1
1 0.45 0.1
1 0.475 0.1
1 0.0125 0.1
1 0.0375 0.1
1 0.0625 0.1
1 0.0875 0.1
1 0.1125 0.1
1 0.1375 0.1
1 0.1625 0.1
1 0.1875 0.1
1 0.2125 0.1
1 0.2375 0.1
1 0.2625 0.1
1 0.2875 0.1
1 0.3125 0.1
1 0.3375 0.1
1 0.3625 0.1
1 0.3875 0.1
1 0.4125 0.1
1 0.4375 0.1
1 0.4625 0.1
1 0.4875 0.1
0.975 0.5 0.1
0.95 0.5 0.1
0.925 0.5 0.1
0.9 0.5 0.1
0.875 0.5 0.1
0.85 0.5 0.1
0.825 0.5 0.1
0.8 0.5 0.1
0.775 0.5 0.1
0.75 0.5 0.1
0.725 0.5 0.1
0.7 0.5 0.1
0.675 0.5 0.1
0.65 0.5 0.1
0.625 0.5 0.1
0.6 0.5 0.1
0.575 0.5 0.1
0.55 0.5 0.1
0.525 0.5 0.1
0.5 0.5 0.1
0.475 0.5 0.1
0.45 0.5 0.1
0.425 0.5 0.1
0.4 0.5 0.1
0.375 0.5 0.1
0.35 0.5 0.1
0.325 0.5 0.1
0.3 0.5 0.1
0.275 0.5 0.1
0.25 0.5 0.1
0.225 0.5 0.1
0.2 0.5 0.1
0.175 0.5 0.1
0.15 0.5 0.1
0.125 0.5 0.1
0.1 0.5 0.1
0.075 0.5 0.1
0.05 0.5 0.1
0.025 0.5 0.1
0.9875 0.5 0.1
0.9625 0.5 0.1
0.9375 0.5 0.1
0.9125 0.5 0.1
0.8875 0.5 0.1
0.8625 0.5 0.1
0.8375 0.5 0.1
0.8125 0.5 0.1
0.7875 0.5 0.1
0.7625 0.5 0.1
0.7375 0.5 0.1
0.7125 0.5 0.1
0.6875 0.5 0.1
0.6625 0.5 0.1
0.6375 0.5 0.1
0.6125 0.5 0.1
0.5875 0.5 0.1
0.5625 0.5 0.1
0.5375 0.5 0.1
0.5125 0.5 0.1
0.4875 0.5 0.1
0.4625 0.5 0.1
0.4375 0.5 0.1
0.4125 0.5 0.1
0.3875 0.5 0.1
0.3625 0.5 0.1
0.3375 0.5 0.1
0.3125 0.5 0.1
0.2875 0.5 0.1
0.2625 0.5 0.1
0.2375 0.5 0.1
0.2125 0.5 0.1
0.1875 0.5 0.1
0.1625 0.5 0.1
0.1375 0.5 0.1
0.1125 0.5 0.1
0.0875 0.5 0.1
0.0625 0.5 0.1
0.0375 0.5 0.1
0.0125 0.5 0.1
0 0.475 0.1
0 0.45 0.1
0 0.425 0.1
0 0.4 0.1
0 0.375 0.1
0 0.35 0.1
0 0.325 0.1
0 0.3 0.1
0 0.275 0.1
0 0.25 0.1
0 0.225 0.1
0 0.2 0.1
0 0.175 0.1
0 0.15 0.1
0 0.125 0.1
0 0.1 0.1
0 0.075 0.1
0 0.05 0.1
0 0.025 0.1
0 0.4875 0.1
0 0.4625 0.1
0 0.4375 0.1
0 0.4125 0.1
0 0.3875 0.1
0 0.3625 0.1
0 0.3375 0.1
0 0.3125 0.1
0 0.2875 0.1
0 0.2625 0.1
0 0.2375 0.1
0 0.2125 0.1
0 0.1875 0.1
0 0.1625 0.1
0 0.1375 0.1
0 0.1125 0.1
0 0.0875 0.1
0 0.0625 0.1
0 0.0375 0.1
0 0.0125 0.1
0.975 0.475 0.1
0.975 0.45 0.1
0.975 0.425 0.1
0.975 0.4 0.1
0.975 0.375 0.1
0.975 0.35 0.1
0.975 0.325 0.1
0.975 0.3 0.1
0.975 0.275 0.1
0.975 0.25 0.1
0.975 0.225 0.1
0.975 0.2 0.1
0.975 0.175 0.1
0.975 0.15 0.1
0.975 0.125 0.1
0.975 0.1 0.1
0.975 0.075 0.1
0.975 0.05 0.1
0.975 0.025 0.1
0.95 0.475 0.1
0.95 0.45 0.1
0.95 0.425 0.1
0.95 0.4 0.1
0.95 0.375 0.1
0.95 0.35 0.1
0.95 0.325 0.1
0.95 0.3 0.1
0.95 0.275 0.1
0.95 0.25 0.1
0.95 0.225 0.1
0.95 0.2 0.1
0.95 0.175 0.1
0.95 0.15 0.1
0.95 0.125 0.1
0.95 0.1 0.1
0.95 0.075 0.1
0.95 0.05 0.1
0.95 0.025 0.1
0.925 0.475 0.1
0.925 0.45 0.1
0.925 0.425 0.1
0.925 0.4 0.1
0.925 0.375 0.1
0.925 0.35 0.1
0.925 0.325 0.1
0.925 0.3 0.1
0.925 0.275 0.1
0.925 0.25 0.1
0.925 0.225 0.1
0.925 0.2 0.1
0.925 0.175 0.1
0.925 0.15 0.1
0.925 0.125 0.1
0.925 0.1 0.1
0.925 0.075 0.1
0.925 0.05 0.1
0.925 0.025 0.1
0.9 0.475 0.1
0.9 0.45 0.1
0.9 0.425 0.1
0.9 0.4 0.1
0.9 0.375 0.1
0.9 0.35 0.1
0.9 0.325 0.1
0.9 0.3 0.1
0.9 0.275 0.1
0.9 0.25 0.1
0.9 0.225 0.1
0.9 0.2 0.1
0.9 0.175 0.1
0.9 0.15 0.1
0.9 0.125 0.1
0.9 0.1 0.1
0.9 0.075 0.1
0.9 0.05 0.1
0.9 0.025 0.1
0.875 0.475 0.1
0.875 0.45 0.1
0.875 0.425 0.1
0.875 0.4 0.1
0.875 0.375 0.1
0.875 0.35 0.1
0.875 0.325 0.1
0.875 0.3 0.1
0.875 0.275 0.1
0.875 0.25 0.1
0.875 0.225 0.1
0.875 0.2 0.1
0.875 0.175 0.1
0.875 0.15 0.1
0.875 0.125 0.1
0.875 0.1 0.1
0.875 0.075 0.1
0.875 0.05 0.1
0.875 0.025 0.1
0.85 0.475 0.1
0.85 0.45 0.1
0.85 0.425 0.1
0.85 0.4 0.1
0.85 0.375 0.1
0.85 0.35 0.1
0.85 0.325 0.1
0.85 0.3 0.1
0.85 0.275 0.1
0.85 0.25 0.1
0.85 0.225 0.1
0.85 0.2 0.1
0.85 0.175 0.1
0.85 0.15 0.1
0.85 0.125 0.1
0.85 0.1 0.1
0.85 0.075 0.1
0.85 0.05 0.1
0.85 0.025 0.1
0.825 0.475 0.1
0.825 0.45 0.1
0.825 0.425 0.1
0.825 0.4 0.1
0.825 0.375 0.1
0.825 0.35 0.1
0.825 0.325 0.1
0.825 0.3 0.1
0.825 0.275 0.1
0.825 0.25 0.1
0.825 0.225 0.1
0.825 0.2 0.1
0.825 0.175 0.1
0.825 0.15 0.1
0.825 0.125 0.1
0.825 0.1 0.1
0.825 0.075 0.1
0.825 0.05 0.1
0.825 0.025 0.1
0.8 0.475 0.1
0.8 0.45 0.1
0.8 0.425 0.1
0.8 0.4 0.1
0.8 0.375 0.1
0.8 0.35 0.1
0.8 0.325 0.1
0.8 0.3 0.1
0.8 0.275 0.1
0.8 0.25 0.1
0.8 0.225 0.1
0.8 0.2 0.1
0.8 0.175 0.1
0.8 0.15 0.1
0.8 0.125 0.1
0.8 0.1 0.1
0.8 0.075 0.1
0.8 0.05 0.1
0.8 0.025 0.1
0.775 0.475 0.1
0.775 0.45 0.1
0.775 0.425 0.1
0.775 0.4 0.1
0.775 0.375 0.1
0.775 0.35 0.1
0.775 0.325 0.1
0.775 0.3 0.1
0.775 0.275 0.1
0.775 0.25 0.1
0.775 0.225 0.1
0.775 0.2 0.1
0.775 0.175 0.1
0.775 0.15 0.1
0.775 0.125 0.1
0.775 0.1 0.1
0.775 0.075 0.1
0.775 0.05 0.1
0.775 0.025 0.1
0.75 0.475 0.1
0.75 0.45 0.1
0.75 0.425 0.1
0.75 0.4 0.1
0.75 0.375 0.1
0.75 0.35 0.1
0.75 0.325 0.1
0.75 0.3 0.1
0.75 0.275 0.1
0.75 0.25 0.1
0.75 0.225 0.1
0.75 0.2 0.1
0.75 0.175 0.1
0.75 0.15 0.1
0.75 0.125 0.1
0.75 0.1 0.1
0.75 0.075 0.1
0.75 0.05 0.1
0.75 0.025 0.1
0.725 0.475 0.1
0.725 0.45 0.1
0.725 0.425 0.1
0.725 0.4 0.1
0.725 0.375 0.1
0.725 0.35 0.1
0.725 0.325 0.1
0.725 0.3 0.1
0.725 0.275 0.1
0.725 0.25 0.1
0.725 0.225 0.1
0.725 0.2 0.1
0.725 0.175 0.1
0.725 0.15 0.1
0.725 0.125 0.1
0.725 0.1 0.1
0.725 0.075 0.1
0.725 0.05 0.1
0.725 0.025 0.1
0.7 0.475 0.1
0.7 0.45 0.1
0.7 0.425 0.1
0.7 0.4 0.1
0.7 0.375 0.1
0.7 0.35 0.1
0.7 0.325 0.1
0.7 0.3 0.1
0.7 0.275 0.1
0.7 0.25 0.1
0.7 0.225 0.1
0.7 0.2 0.1
0.7 0.175 0.1
0.7 0.15 0.1
0.7 0.125 0.1
0.7 0.1 0.1
0.7 0.075 0.1
0.7 0.05 0.1
0.7 0.025 0.1
0.675 0.475 0.1
0.675 0.45 0.1
0.675 0.425 0.1
0.675 0.4 0.1
0.675 0.375 0.1
0.675 0.35 0.1
0.675 0.325 0.1
0.675 0.3 0.1
0.675 0.275 0.1
0.675 0.25 0.1
0.675 0.225 0.1
0.675 0.2 0.1
0.675 0.175 0.1
0.675 0.15 0.1
0.675 0.125 0.1
0.675 0.1 0.1
0.675 0.075 0.1
0.675 0.05 0.1
0.675 0.025 0.1
0.65 0.475 0.1
0.65 0.45 0.1
0.65 0.425 0.1
0.65 0.4 0.1
0.65 0.375 0.1
0.65 0.35 0.1
0.65 0.325 0.1
0.65 0.3 0.1
0.65 0.275 0.1
0.65 0.25 0.1
0.65 0.225 0.1
0.65 0.2 0.1
0.65 0.175 0.1
0.65 0.15 0.1
0.65 0.125 0.1
0.65 0.1 0.1
0.65 0.075 0.1
0.65 0.05 0.1
0.65 0.025 0.1
0.625 0.475 0.1
0.625 0.45 0.1
0.625 0.425 0.1
0.625 0.4 0.1
0.625 0.375 0.1
0.625 0.35 0.1
0.625 0.325 0.1
0.625 0.3 0.1
0.625 0.275 0.1
0.625 0.25 0.1
0.625 0.225 0.1
0.625 0.2 0.1
0.625 0.175 0.1
0.625 0.15 0.1
0.625 0.125 0.1
0.625 0.1 0.1
0.625 0.075 0.1
0.625 0.05 0.1
0.625 0.025 0.1
0.6 0.475 0.1
0.6 0.45 0.1
0.6 0.425 0.1
0.6 0.4 0.1
0.6 0.375 0.1
0.6 0.35 0.1
0.6 0.325 0.1
0.6 0.3 0.1
0.6 0.275 0.1
0.6 0.25 0.1
0.6 0.225 0.1
0.6 0.2 0.1
0.6 0.175 0.1
0.6 0.15 0.1
0.6 0.125 0.1
0.6 0.1 0.1
0.6 0.075 0.1
0.6 0.05 0.1
0.6 0.025 0.1
0.575 0.475 0.1
0.575 0.45 0.1
0.575 0.425 0.1
0.575 0.4 0.1
0.575 0.375 0.1
0.575 0.35 0.1
0.575 0.325 0.1
0.575 0.3 0.1
0.575 0.275 0.1
0.575 0.25 0.1
0.575 0.225 0.1
0.575 0.2 0.1
0.575 0.175 0.1
0.575 0.15 0.1
0.575 0.125 0.1
0.575 0.1 0.1
0.575 0.075 0.1
0.575 0.05 0.1
0.575 0.025 0.1
0.55 0.475 0.1
0.55 0.45 0.1
0.55 0.425 0.1
0.55 0.4 0.1
0.55 0.375 0.1
0.55 0.35 0.1
0.55 0.325 0.1
0.55 0.3 0.1
0.55 0.275 0.1
0.55 0.25 0.1
0.55 0.225 0.1
0.55 0.2 0.1
0.55 0.175 0.1
0.55 0.15 0.1
0.55 0.125 0.1
0.55 0.1 0.1
0.55 0.075 0.1
0.55 0.05 0.1
0.55 0.025 0.1
0.525 0.475 0.1
0.525 0.45 0.1
0.525 0.425 0.1
0.525 0.4 0.1
0.525 0.375 0.1
0.525 0.35 0.1
0.525 0.325 0.1
0.525 0.3 0.1
0.525 0.275 0.1
0.525 0.25 0.1
0.525 0.225 0.1
0.525 0.2 0.1
0.525 0.175 0.1
0.525 0.15 0.1
0.525 0.125 0.1
0.525 0.1 0.1
0.525 0.075 0.1
0.525 0.05 0.1
0.525 0.025 0.1
0.5 0.475 0.1
0.5 0.45 0.1
0.5 0.425 0.1
0.5 0.4 0.1
0.5 0.375 0.1
0.5 0.35 0.1
0.5 0.325 0.1
0.5 0.3 0.1
0.5 0.275 0.1
0.5 0.25 0.1
0.5 0.225 0.1
0.5 0.2 0.1
0.5 0.175 0.1
0.5 0.15 0.1
0.5 0.125 0.1
0.5 0.1 0.1
0.5 0.075 0.1
0.5 0.05 0.1
0.5 0.025 0.1
0.475 0.475 0.1
0.475 0.45 0.1
0.475 0.425 0.1
0.475 0.4 0.1
0.475 0.375 0.1
0.475 0.35 0.1
0.475 0.325 0.1
0.475 0.3 0.1
0.475 0.275 0.1
0.475 0.25 0.1
0.475 0.225 0.1
0.475 0.2 0.1
0.475 0.175 0.1
0.475 0.15 0.1
0.475 0.125 0.1
0.475 0.1 0.1
0.475 0.075 0.1
0.475 0.05 0.1
0.475 0.025 0.1
0.45 0.475 0.1
0.45 0.45 0.1
0.45 0.425 0.1
0.45 0.4 0.1
0.45 0.375 0.1
0.45 0.35 0.1
0.45 0.325 0.1
0.45 0.3 0.1
0.45 0.275 0.1
0.45 0.25 0.1
0.45 0.225 0.1
0.45 0.2 0.1
0.45 0.175 0.1
0.45 0.15 0.1
0.45 0.125 0.1
0.45 0.1 0.1
0.45 0.075 0.1
0.45 0.05 0.1
0.45 0.025 0.1
0.425 0.475 0.1
0.425 0.45 0.1
0.425 0.425 0.1
0.425 0.4 0.1
0.425 0.375 0.1
0.425 0.35 0.1
0.425 0.325 0.1
0.425 0.3 0.1
0.425 0.275 0.1
0.425 0.25 0.1
0.425 0.225 0.1
0.425 0.2 0.1
0.425 0.175 0.1
0.425 0.15 0.1
0.425 0.125 0.1
0.425 0.1 0.1
0.425 0.075 0.1
0.425 0.05 0.1
0.425 0.025 0.1
0.4 0.475 0.1
0.4 0.45 0.1
0.4 0.425 0.1
0.4 0.4 0.1
0.4 0.375 0.1
0.4 0.35 0.1
0.4 0.325 0.1
0.4 0.3 0.1
0.4 0.275 0.1
0.4 0.25 0.1
0.4 0.225 0.1
0.4 0.2 0.1
0.4 0.175 0.1
0.4 0.15 0.1
0.4 0.125 0.1
0.4 0.1 0.1
0.4 0.075 0.1
0.4 0.05 0.1
0.4 0.025 0.1
0.375 0.475 0.1
0.375 0.45 0.1
0.375 0.425 0.1
0.375 0.4 0.1
0.375 0.375 0.1
[...]
    <PointData>
      <DataArray type="Float64" NumberOfComponents="3" Name="Velocity" format="ascii">
0 0 0
0 0 0
0 0 0
0 0 0
0 0 0
0 0 0
0 0 0
0 0 0
0 0 0
0 0 0
0 0 0
0 0 0
0 0 0
0 0 0
0 0 0
0 0 0
0 0 0
0 0 0
0 0 0
0 0 0
0 0 0
0 0 0
0 0 0
0 0 0
0 0 0
0 0 0
0 0 0
0 0 0
0 0 0
0 0 0
0 0 0
0 0 0
0 0 0
0 0 0
0 0 0
0 0 0
0 0 0
0 0 0
0 0 0
0 0 0
0 0 0
0 0 0
0 0 0
0 0 0
0 0 0
0 0 0
0 0 0
0 0 0
0 0 0
0 0 0
0 0 0
0 0 0
0 0 0
0 0 0
0 0 0
0 0 0
0 0 0
0 0 0
0 0 0
0 0 0
0 0 0
0 0 0
0 0 0
0 0 0
0 0 0
0 0 0
0 0 0
0 0 0
0 0 0
0 0 0
0 0 0
0 0 0
0 0 0
0 0 0
0 0 0
0 0 0
0 0 0
0 0 0
0 0 0
0 0 0
0 0 0
0 0 0
0 0 0
0 0 0
0 0 0
0 0 0
0 0 0
0 0 0
0 0 0
0 0 0
0 0 0
0 0 0
0 0 0
0 0 0
0 0 0
0 0 0
0 0 0
0 0 0
0 0 0
0 0 0
0 0 0
0 0 0
0 0 0
0 0 0
0 0 0
0 0 0
0 0 0
0 0 0
0 0 0
0 0 0
0 0 0
0 0 0
0 0 0
0 0 0
0 0 0
0 0 0
0 0 0
0 0 0
0 0 0
0 0 0
0 0 0
0 0 0
-0.00186394 -0.0339528 0
-0.0128356 -0.0516578 0
-0.0193566 -0.0571617 0
-0.024407 -0.0698526 0
-0.034081 -0.0821364 0
-0.0462421 -0.0891156 0
-0.0569535 -0.0917121 0
-0.0662915 -0.0896629 0
-0.0763609 -0.0855977 0
-0.0864737 -0.0811582 0
-0.0958701 -0.0757877 0
-0.103646 -0.0693398 0
-0.109896 -0.0603463 0
-0.115377 -0.0509916 0
-0.120516 -0.0415348 0
-0.124296 -0.0317628 0
-0.12711 -0.0228118 0
-0.128083 -0.0130002 0
-0.129283 -0.00392069 0
-0.12865 0.00566262 0
-0.127363 0.0151225 0
-0.12518 0.0239373 0
-0.122017 0.03245 0
-0.118057 0.0406446 0
-0.113403 0.0485873 0
-0.108207 0.0570698 0
-0.102449 0.0645074 0
-0.0960519 0.0710699 0
-0.0878454 0.076311 0
-0.0783728 0.0798891 0
-0.0688594 0.0823466 0
-0.059894 0.0848422 0
-0.0506706 0.0872281 0
-0.0410978 0.0856953 0
-0.0316901 0.0766382 0
-0.0239969 0.0629751 0
-0.0203294 0.0527857 0
-0.0151889 0.0509209 0
-0.00215381 0.0352079 0
0.00413817 -0.00606847 0
-0.0078271 -0.046321 0
-0.0166837 -0.0542321 0
-0.0214275 -0.0632896 0
-0.0287713 -0.0760186 0
-0.0400685 -0.0860861 0
-0.0518824 -0.0911 0
-0.0615984 -0.0909654 0
-0.0712077 -0.087537 0
-0.0814493 -0.0833787 0
-0.0912874 -0.0785774 0
-0.099987 -0.0727198 0
-0.106676 -0.0651084 0
-0.112863 -0.05579 0
-0.118142 -0.0460484 0
-0.12247 -0.0367479 0
-0.125951 -0.0271608 0
-0.127488 -0.018087 0
-0.128919 -0.00834975 0
-0.129062 0.000779007 0
-0.128195 0.0105163 0
-0.126363 0.0197094 0
-0.123628 0.028304 0
-0.120013 0.0366599 0
-0.115709 0.0445551 0
-0.110632 0.0527807 0
-0.105433 0.0607808 0
-0.0995113 0.0679543 0
-0.0921105 0.0737848 0
-0.0831804 0.0781553 0
-0.0735406 0.0811822 0
-0.064388 0.0835815 0
-0.0553629 0.0862452 0
-0.0459032 0.0870325 0
-0.0363479 0.0815732 0
-0.027435 0.0699057 0
-0.0217192 0.0575335 0
-0.0190342 0.051127 0
-0.00842581 0.0468863 0
-0.000133149 0.00812768 0
0 0 0
0 0 0
0 0 0
0 0 0
0 0 0
0 0 0
0 0 0
0 0 0
0 0 0
0 0 0
0 0 0
0 0 0
0 0 0
0 0 0
0 0 0
0 0 0
0 0 0
0 0 0
0 0 0
0 0 0
0 0 0
0 0 0
0 0 0
0 0 0
0 0 0
0 0 0
0 0 0
0 0 0
0 0 0
0 0 0
0 0 0
0 0 0
0 0 0
0 0 0
0 0 0
0 0 0
0 0 0
0 0 0
0 0 0
0.00168611 -0.024401 0
-0.00153003 -0.0197025 0
0.00300087 -0.0142523 0
0.00585481 -0.0104721 0
0.00274714 -0.00967655 0
0.0033817 -0.00856733 0
0.00366782 -0.00729135 0
0.0037814 -0.00606517 0
0.00386966 -0.00498815 0
0.0039459 -0.00405739 0
0.00400922 -0.0032495 0
0.00406048 -0.00254804 0
0.00410386 -0.00194568 0
0.00415008 -0.00144312 0
0.00420232 -0.00101379 0
0.00426039 -0.00064245 0
0.00432234 -0.000337871 0
0.00438699 -0.000121695 0
0.00444384 -7.23112e-06 0
-0.00671684 -0.0419415 0
-0.00790713 -0.0363625 0
-0.00387744 -0.030161 0
0.00276492 -0.0214611 0
0.00213908 -0.0183669 0
0.00178882 -0.0162533 0
0.00185907 -0.0137281 0
0.00211755 -0.0113526 0
0.00240896 -0.009304 0
0.00267816 -0.00756143 0
0.00290773 -0.00606793 0
0.00309677 -0.004782 0
0.00325897 -0.00367836 0
0.00341433 -0.00273954 0
0.00357904 -0.00194187 0
0.00375422 -0.00126613 0
0.00394047 -0.000716333 0
0.00413871 -0.000314145 0
0.00433693 -7.89863e-05 0
-0.0134913 -0.0525604 0
-0.0135101 -0.0463653 0
-0.0100357 -0.0414783 0
-0.00335606 -0.036342 0
-0.00170507 -0.0292633 0
-0.00178556 -0.0236452 0
-0.00127717 -0.0193793 0
-0.000558136 -0.0158971 0
0.00013435 -0.0130032 0
0.000734276 -0.0105672 0
0.00123744 -0.00849481 0
0.00165883 -0.00671831 0
0.00202236 -0.00519266 0
0.0023549 -0.00388521 0
0.00268091 -0.00277333 0
0.00301518 -0.00183728 0
0.00336693 -0.0010742 0
0.00374281 -0.000503135 0
0.00413425 -0.000144582 0
-0.02121 -0.0614795 0
-0.019671 -0.0545774 0
-0.0145898 -0.0493329 0
-0.00948172 -0.0441993 0
-0.00891789 -0.0361088 0
-0.0072497 -0.0292659 0
-0.00557446 -0.0239199 0
-0.00408547 -0.0196185 0
-0.0028253 -0.0160652 0
-0.0017785 -0.0130753 0
-0.000910788 -0.0105316 0
-0.000182308 -0.00835186 0
0.000445618 -0.00647817 0
0.00100949 -0.00486893 0
0.00154221 -0.00349491 0
0.0020725 -0.002337 0
0.00262323 -0.00138796 0
0.00321129 -0.000665736 0
0.00384474 -0.000197574 0
-0.0302744 -0.0707865 0
-0.0266525 -0.0622959 0
-0.0210663 -0.054549 0
-0.0161826 -0.0461724 0
-0.0160353 -0.0388032 0
-0.0131638 -0.032627 0
-0.0104499 -0.0271462 0
-0.00817178 -0.0224494 0
-0.00628935 -0.0184623 0
-0.00473497 -0.0150676 0
-0.00344291 -0.0121635 0
-0.00235452 -0.00966869 0
-0.00141697 -0.00752045 0
-0.000581629 -0.0056722 0
0.000195069 -0.00408982 0
0.000953252 -0.00275128 0
0.00173154 -0.00164685 0
0.00256543 -0.00079795 0
0.00348306 -0.000238498 0
-0.0406405 -0.0776154 0
-0.0359593 -0.0673071 0
-0.0300554 -0.0575187 0
-0.0240344 -0.0477256 0
-0.0220563 -0.0406529 0
-0.0187781 -0.0347971 0
-0.015493 -0.0293335 0
-0.0125783 -0.0244464 0
-0.0100966 -0.0201972 0
-0.00801248 -0.0165325 0
-0.00626302 -0.013376 0
-0.00478147 -0.0106547 0
-0.00350401 -0.00830602 0
-0.00237032 -0.00628068 0
-0.00132366 -0.0045431 0
-0.000311197 -0.00306932 0
0.000717849 -0.00184539 0
0.00182423 -0.000898751 0
0.00306498 -0.000270196 0
-0.0522063 -0.0802651 0
-0.0469329 -0.0691986 0
-0.0397894 -0.0591789 0
-0.032085 -0.0502536 0
-0.0280998 -0.042858 0
-0.0244222 -0.0364806 0
-0.0206705 -0.0307616 0
-0.0171821 -0.0257031 0
-0.0141186 -0.0212948 0
-0.0114985 -0.0174733 0
-0.00927612 -0.0141659 0
-0.00738386 -0.0113047 0
-0.00574937 -0.00882874 0
-0.00430136 -0.00668841 0
-0.00297011 -0.00484749 0
-0.0016871 -0.00328352 0
-0.000387004 -0.00198332 0
0.0010127 -0.000967496 0
0.00260615 -0.000290965 0
-0.0636342 -0.0788214 0
-0.0574243 -0.0690227 0
-0.0489033 -0.0601731 0
-0.039653 -0.0522576 0
-0.034935 -0.044354 0
-0.0304708 -0.0374192 0
-0.0260353 -0.0314302 0
-0.021908 -0.0262572 0
-0.0182491 -0.0217833 0
-0.0150898 -0.0179062 0
-0.0123909 -0.0145427 0
-0.0100828 -0.0116242 0
-0.00808552 -0.00909193 0
-0.00631702 -0.00689745 0
-0.00469486 -0.00500536 0
-0.00313585 -0.00339378 0
-0.00155055 -0.00205927 0
0.000156694 -0.00100657 0
0.00212234 -0.000303175 0
-0.073831 -0.0756597 0
-0.0664193 -0.0673027 0
-0.0570305 -0.0594836 0
-0.0470271 -0.0518992 0
-0.0421729 -0.0440553 0
-0.0367497 -0.037178 0
-0.0314752 -0.0312261 0
-0.0266469 -0.0261086 0
-0.0223815 -0.0216902 0
-0.0186887 -0.0178588 0
-0.015521 -0.0145279 0
-0.012803 -0.0116294 0
-0.0104469 -0.00910769 0
-0.00836025 -0.00691671 0
-0.00644802 -0.00502355 0
-0.00461217 -0.00340818 0
-0.00274322 -0.00206955 0
-0.000718449 -0.00101797 0
0.00162849 -0.000308312 0
-0.0829723 -0.0719173 0
-0.0744867 -0.0642349 0
-0.0645366 -0.0568447 0
-0.0542522 -0.049343 0
-0.0490258 -0.0420823 0
-0.0427939 -0.0357551 0
-0.0367486 -0.0301631 0
-0.0312528 -0.025293 0
-0.0264064 -0.0210584 0
-0.0222032 -0.0173698 0
-0.0185868 -0.0141524 0
-0.0154749 -0.0113444 0
-0.0127725 -0.00889463 0
-0.0103775 -0.00676064 0
-0.00818327 -0.00491291 0
-0.0060762 -0.00333507 0
-0.0039297 -0.00202329 0
-0.00158816 -0.0010011 0
0.00113942 -0.00030317 0
-0.0915148 -0.0675085 0
-0.0822861 -0.0599724 0
-0.0717308 -0.0527979 0
-0.0611172 -0.0456406 0
-0.0551322 -0.0391506 0
-0.0483086 -0.0334877 0
-0.0416635 -0.0283995 0
-0.0355956 -0.0239019 0
-0.030225 -0.0199509 0
-0.0255514 -0.0164878 0
-0.021517 -0.0134547 0
-0.0180359 -0.0107992 0
-0.0150072 -0.00847578 0
-0.0123204 -0.00644705 0
-0.00985798 -0.00468697 0
-0.00749159 -0.00318241 0
-0.00507672 -0.00193099 0
-0.00243421 -0.000955124 0
0.000663428 -0.00028979 0
-0.0994449 -0.0616329 0
-0.0898479 -0.0546222 0
-0.0785587 -0.0479437 0
-0.0673004 -0.0415173 0
-0.0605379 -0.0357684 0
-0.0532548 -0.0306948 0
-0.0461405 -0.0261171 0
-0.0395918 -0.0220434 0
-0.0337611 -0.0184411 0
-0.028665 -0.0152676 0
-0.0242511 -0.012477 0
-0.0204322 -0.0100265 0
-0.0171032 -0.00787679 0
-0.0141466 -0.00599551 0
-0.0114348 -0.00436046 0
-0.00882657 -0.00296032 0
-0.00615851 -0.00179753 0
-0.00322988 -0.000889471 0
0.000214082 -0.000267688 0
-0.106513 -0.0544122 0
-0.0966381 -0.0484555 0
-0.0846979 -0.0427477 0
-0.0726642 -0.03722 0
-0.0653974 -0.0320623 0
-0.0576952 -0.0275095 0
-0.0501617 -0.0234322 0
-0.0431932 -0.0198082 0
-0.0369593 -0.0165988 0
-0.0314902 -0.0137633 0
-0.0267387 -0.0112623 0
-0.0226179 -0.00906028 0
-0.0190194 -0.00712418 0
-0.0158193 -0.00542612 0
-0.0128813 -0.00394787 0
-0.0100525 -0.00268033 0
-0.00715366 -0.00162705 0
-0.00396431 -0.000803629 0
-0.000199413 -0.000245271 0
-0.112384 -0.046201 0
-0.102242 -0.0416843 0
-0.0898684 -0.0371438 0
-0.0772846 -0.032503 0
-0.0697452 -0.027935 0
-0.0616377 -0.0239429 0
-0.053706 -0.0204031 0
-0.0463616 -0.0172635 0
-0.0397762 -0.0144844 0
-0.0339837 -0.0120259 0
-0.0289395 -0.00985233 0
-0.0245562 -0.00793414 0
-0.0207219 -0.00624386 0
-0.0173079 -0.00475865 0
-0.0141703 -0.00346359 0
-0.0111456 -0.00235171 0
-0.00804118 -0.00142678 0
-0.00461499 -0.000704664 0
-0.000563046 -0.000213234 0
-0.117233 -0.0379591 0
-0.106662 -0.0345608 0
-0.0940234 -0.0310725 0
-0.0812284 -0.0272051 0
-0.0734628 -0.0233427 0
-0.0650018 -0.0200177 0
-0.0567231 -0.0170773 0
-0.0490564 -0.0144668 0
-0.0421748 -0.0121527 0
-0.0361109 -0.0101025 0
-0.0308207 -0.00828632 0
-0.0262163 -0.00667961 0
-0.0221829 -0.00526097 0
-0.0185873 -0.00401205 0
-0.0152793 -0.00292128 0
-0.0120866 -0.00198357 0
-0.00880528 -0.00120231 0
-0.0051807 -0.000592173 0
-0.000884518 -0.000180182 0
-0.120863 -0.0297441 0
-0.110146 -0.0271603 0
-0.097273 -0.0244854 0
-0.0844202 -0.0214319 0
-0.0764172 -0.0184053 0
-0.0676983 -0.0158206 0
-0.0591589 -0.0135261 0
-0.0512416 -0.0114781 0
-0.0441252 -0.00965612 0
-0.0378451 -0.00803762 0
-0.0323576 -0.00660099 0
-0.027575 -0.0053268 0
-0.0233805 -0.00419902 0
-0.0196376 -0.00320428 0
-0.0161907 -0.00233414 0
-0.0128609 -0.00158503 0
-0.00943481 -0.000960638 0
-0.00564501 -0.0004731 0
-0.00114347 -0.000142999 0
-0.123669 -0.0214012 0
-0.112884 -0.019547 0
-0.0996945 -0.0176618 0
-0.0867458 -0.0154898 0
-0.0785649 -0.0133154 0
-0.0696973 -0.0114725 0
-0.0609891 -0.0098315 0
-0.0528963 -0.00836014 0
-0.0456089 -0.00704464 0
-0.0391678 -0.00587274 0
-0.0335325 -0.00483056 0
-0.0286159 -0.00390355 0
-0.0242998 -0.00308006 0
-0.0204444 -0.00235197 0
-0.016891 -0.00171416 0
-0.0134557 -0.0011644 0
-0.00991732 -0.000705077 0
-0.00599836 -0.000344251 0
-0.00134087 -0.000104526 0
-0.125505 -0.012886 0
-0.114823 -0.0119537 0
-0.101279 -0.0108995 0
-0.0881894 -0.00961106 0
-0.0799617 -0.00821552 0
-0.0710231 -0.00706663 0
-0.0622178 -0.0060631 0
-0.0540129 -0.00516752 0
-0.0466146 -0.00436406 0
-0.0400678 -0.003646 0
-0.0343341 -0.00300662 0
-0.0293274 -0.00243554 0
-0.0249287 -0.00192433 0
-0.0209972 -0.00147064 0
-0.0173714 -0.00107273 0
-0.013864 -0.000728973 0
-0.0102494 -0.000440799 0
-0.0062437 -0.000215367 0
-0.0014819 -6.38765e-05 0
-0.126442 -0.00433655 0
-0.115837 -0.004447 0
-0.10202 -0.00431675 0
-0.0888526 -0.00382728 0
-0.0806642 -0.00312335 0
-0.0716946 -0.0026464 0
-0.0628419 -0.00226977 0
-0.0545883 -0.001946 0
-0.0471376 -0.00165496 0
-0.0405397 -0.00139236 0
-0.0347568 -0.00115803 0
-0.0297036 -0.000945963 0
-0.0252616 -0.00075061 0
-0.0212902 -0.000575157 0
-0.0176265 -0.000420775 0
-0.0140813 -0.00028656 0
-0.0104267 -0.000173174 0
-0.00637518 -8.38734e-05 0
-0.00155408 -2.35375e-05 0
-0.126238 0.00404054 0
-0.115863 0.00301705 0
-0.101945 0.0022492 0
-0.0888159 0.00198449 0
-0.0806744 0.00197407 0
-0.0717125 0.00176275 0
-0.0628693 0.00150761 0
-0.0546242 0.00126283 0
-0.0471784 0.00104612 0
-0.0405827 0.00085577 0
-0.0348008 0.000688194 0
-0.0297443 0.000543977 0
-0.0252974 0.000423774 0
-0.021322 0.000320885 0
-0.0176545 0.000231587 0
-0.0141055 0.000155963 0
-0.0104467 9.43738e-05 0
-0.00639017 4.69933e-05 0
-0.00156377 1.54215e-05 0
-0.125327 0.0122859 0
-0.115023 0.0104314 0
-0.101105 0.00882227 0
-0.0880575 0.00778439 0
-0.079952 0.00701983 0
-0.0710664 0.0061105 0
-0.0623005 0.00522717 0
-0.0541233 0.00442216 0
-0.0467388 0.00370457 0
-0.0401976 0.00306831 0
-0.034463 0.00250531 0
-0.0294482 0.00201436 0
-0.0250376 0.00158238 0
-0.0210944 0.00120432 0
-0.0174575 0.000874917 0
-0.0139383 0.000592447 0
-0.0103107 0.000358454 0
-0.00628973 0.00017574 0
-0.00150458 5.43318e-05 0
-0.123512 0.0204648 0
-0.113251 0.0177144 0
-0.0994274 0.0152374 0
-0.0865244 0.013384 0
-0.0785037 0.0118973 0
-0.0697705 0.0103283 0
-0.0611487 0.00884396 0
-0.0530991 0.00749528 0
-0.0458301 0.00628966 0
-0.0393924 0.00521887 0
-0.0337506 0.00427196 0
-0.0288198 0.00344032 0
-0.0244868 0.00270726 0
-0.0206129 0.00206252 0
-0.0170403 0.00149989 0
-0.0135841 0.00101698 0
-0.0100223 0.00061585 0
-0.00607515 0.000305787 0
-0.00138397 9.20411e-05 0
-0.120582 0.0283019 0
-0.110487 0.0246432 0
-0.0969207 0.021393 0
-0.084229 0.0187246 0
-0.076393 0.0165598 0
-0.0678583 0.0143737 0
-0.0594315 0.012317 0
-0.0515666 0.0104462 0
-0.0444669 0.00877069 0
-0.0381831 0.00728123 0
-0.03268 0.00596419 0
-0.0278751 0.00480374 0
-0.0236557 0.00378123 0
-0.0198863 0.00288229 0
-0.0164111 0.0020975 0
-0.0130504 0.00142338 0
-0.00958963 0.000862789 0
-0.00575812 0.000425991 0
-0.00120738 0.000129491 0
-0.11673 0.035722 0
-0.106919 0.0312226 0
-0.0936906 0.0273219 0
-0.0811999 0.0239016 0
-0.0736418 0.0210334 0
-0.065353 0.0182257 0
-0.0571735 0.0156114 0
-0.0495477 0.0132399 0
-0.0426701 0.011116 0
-0.036589 0.00922812 0
-0.0312693 0.00755874 0
-0.02663 0.00608621 0
-0.0225603 0.00479 0
-0.0189275 0.00365176 0
-0.0155805 0.00265861 0
-0.012346 0.00180538 0
-0.00901777 0.00109495 0
-0.00533629 0.000541453 0
-0.000969505 0.000164592 0
-0.112028 0.0428338 0
-0.102633 0.0375573 0
-0.0897667 0.0329416 0
-0.0774352 0.0288341 0
-0.0702224 0.0252622 0
-0.0622595 0.0218363 0
-0.0543962 0.0186854 0
-0.0470671 0.0158394 0
-0.0404635 0.0132937 0
-0.0346324 0.0110321 0
-0.0295389 0.00903259 0
-0.0251036 0.00726905 0
-0.0212173 0.00571895 0
-0.017752 0.0043595 0
-0.0145623 0.00317476 0
-0.0114826 0.00215714 0
-0.00831671 0.00130964 0
-0.00481914 0.000648736 0
-0.000677252 0.000196691 0
-0.106713 0.0497193 0
-0.0976038 0.0435532 0
-0.0850546 0.0380208 0
-0.0729864 0.0332472 0
-0.0661545 0.0290849 0
-0.0586123 0.0251168 0
-0.051135 0.0214848 0
-0.0441576 0.0182047 0
-0.0378764 0.0152707 0
-0.0323397 0.0126649 0
-0.0275132 0.0103623 0
-0.0233178 0.00833342 0
-0.0196477 0.0065528 0
-0.0163794 0.00499367 0
-0.0133743 0.00363684 0
-0.0104762 0.00247225 0
-0.00750205 0.00150212 0
-0.0042225 0.000742838 0
-0.000345355 0.000226129 0
-0.100587 0.0564077 0
-0.0915749 0.0489586 0
-0.0794388 0.042424 0
-0.0680485 0.0369767 0
-0.0615913 0.032379 0
-0.0545038 0.0280015 0
-0.0474458 0.0239642 0
-0.040859 0.0202978 0
-0.0349425 0.0170131 0
-0.0297421 0.0140971 0
-0.0252212 0.0115232 0
-0.0213004 0.00925917 0
-0.017877 0.00727537 0
-0.0148327 0.00554199 0
-0.0120367 0.0040359 0
-0.00934341 0.0027439 0
-0.00658253 0.00166823 0
-0.00354497 0.000827057 0
3.99233e-05 0.000251185 0
-0.0930091 0.0620735 0
-0.0844389 0.0537029 0
-0.0730284 0.0464377 0
-0.0626514 0.0402378 0
-0.0566791 0.0352373 0
-0.0500177 0.0305079 0
-0.0433779 0.0261027 0
-0.0372098 0.0220846 0
-0.0316979 0.0184855 0
-0.0268748 0.0152966 0
-0.0226967 0.0124884 0
-0.0190833 0.0100242 0
-0.0159345 0.00786979 0
-0.0131382 0.00599166 0
-0.010573 0.00436245 0
-0.00810499 0.00296612 0
-0.00557829 0.00180596 0
-0.00280443 0.000896611 0
0.000456432 0.000273184 0
-0.0843961 0.066345 0
-0.076764 0.057794 0
-0.0660469 0.0503192 0
-0.0566384 0.0434403 0
-0.0513862 0.0378797 0
-0.0451383 0.0326825 0
-0.0389411 0.0278763 0
-0.0332389 0.0235221 0
-0.0281806 0.0196453 0
-0.0237779 0.016227 0
-0.019979 0.0132286 0
-0.0167027 0.0106054 0
-0.0138532 0.00831821 0
-0.011326 0.00632897 0
-0.00900972 0.00460646 0
-0.00678322 0.00313319 0
-0.00450807 0.00190839 0
-0.00201656 0.000951259 0
0.000899874 0.000290136 0
-0.0756409 0.0693774 0
-0.0691853 0.0610353 0
-0.0587989 0.0537119 0
-0.0499303 0.0465708 0
-0.0454711 0.0402709 0
-0.0397578 0.034435 0
-0.0341241 0.0291945 0
-0.0289789 0.024538 0
-0.0244375 0.0204376 0
-0.0205002 0.0168467 0
-0.0171138 0.0137116 0
-0.0142006 0.0109785 0
-0.0116709 0.00860205 0
-0.00942951 0.00653988 0
-0.00737619 0.00475777 0
-0.00540273 0.00323765 0
-0.00338926 0.00197438 0
-0.00118866 0.000989088 0
0.00136769 0.000300937 0
-0.0670324 0.0715581 0
-0.0616441 0.0628726 0
-0.0516947 0.0554193 0
-0.0428781 0.0485888 0
-0.0388358 0.0417905 0
-0.0338718 0.0354383 0
-0.0289833 0.0298815 0
-0.0245005 0.0250309 0
-0.0205367 0.0207984 0
-0.017103 0.0171115 0
-0.0141557 0.0139051 0
-0.0116252 0.0111191 0
-0.00943031 0.00870268 0
-0.00748647 0.00661033 0
-0.00570522 0.0048065 0
-0.00399255 0.00327198 0
-0.00224678 0.00200134 0
-0.000345306 0.00100647 0
0.00184612 0.000308016 0
-0.0577687 0.0735646 0
-0.0534224 0.0635805 0
-0.044649 0.0552862 0
-0.0359564 0.0485381 0
-0.0318284 0.0416569 0
-0.0277554 0.0353087 0
-0.0237082 0.0297626 0
-0.0199318 0.024909 0
-0.0165723 0.0206703 0
-0.0136617 0.0169813 0
-0.0111681 0.0137796 0
-0.00903083 0.0110048 0
-0.00717885 0.00860282 0
-0.00553829 0.00652728 0
-0.00403314 0.00474279 0
-0.00258475 0.00322853 0
-0.00110521 0.00198358 0
0.00049389 0.000999588 0
0.00232111 0.000309819 0
-0.0471998 0.0748393 0
-0.0439036 0.0635734 0
-0.0367384 0.053843 0
-0.0290386 0.0459743 0
-0.0251724 0.0396295 0
-0.0218948 0.0339784 0
-0.0185623 0.0288009 0
-0.0154302 0.0241373 0
-0.0126539 0.0200195 0
-0.010262 0.0164274 0
-0.00822194 0.0133122 0
-0.00647803 0.0106172 0
-0.0049684 0.00828834 0
-0.00362986 0.00627979 0
-0.00239907 0.00455754 0
-0.00121134 0.00310241 0
2.09356e-06 0.00191218 0
0.00130486 0.00096337 0
0.00277634 0.000297123 0
-0.0363012 0.0726809 0
-0.0337306 0.06157 0
-0.0274636 0.0511593 0
-0.0220695 0.0422116 0
-0.0195488 0.0367817 0
-0.0166224 0.0319007 0
-0.0137153 0.0271329 0
-0.0111172 0.022738 0
-0.00888538 0.0188363 0
-0.00699444 0.015434 0
-0.00539528 0.0124888 0
-0.00403352 0.00994527 0
-0.00285556 0.00775053 0
-0.00180957 0.00586077 0
-0.000844899 0.00424463 0
8.97627e-05 0.00288726 0
0.00104431 0.0017788 0
0.00206573 0.00089611 0
0.00320413 0.000273749 0
-0.0270079 0.0653003 0
-0.0244768 0.056407 0
-0.0182728 0.0475284 0
-0.0153519 0.0399921 0
-0.0145021 0.0346344 0
-0.0116457 0.029537 0
-0.00911686 0.0248627 0
-0.00705846 0.0207204 0
-0.00536454 0.0171138 0
-0.00395534 0.0139943 0
-0.00277256 0.011305 0
-0.00176831 0.00898667 0
-0.0008999 0.00698803 0
-0.000127706 0.00526852 0
0.000586265 0.00380163 0
0.00128093 0.00257774 0
0.00199232 0.00158278 0
0.00275431 0.000795287 0
0.0035899 0.000241015 0
-0.0200342 0.0555857 0
-0.0171975 0.0484925 0
-0.0121327 0.0424625 0
-0.00959457 0.0385882 0
-0.00857926 0.0322969 0
-0.00642489 0.0264033 0
-0.00472088 0.0217926 0
-0.00334793 0.0180197 0
-0.00220638 0.0148352 0
-0.00124852 0.0121088 0
-0.000441361 0.00976654 0
0.000245044 0.00774831 0
0.000838601 0.00600703 0
0.00136539 0.00450737 0
0.00185166 0.00323091 0
0.00232672 0.00217451 0
0.00281731 0.00132551 0
0.00334541 0.000661608 0
0.00391785 0.000198783 0
-0.013975 0.0476744 0
-0.0108634 0.0402672 0
-0.00864599 0.0351451 0
-0.00485129 0.0317361 0
-0.00192504 0.0260984 0
-0.00142078 0.0213045 0
-0.000853678 0.0175975 0
-0.000188536 0.0145606 0
0.000453125 0.0119894 0
0.00102304 0.00978397 0
0.00151495 0.00788369 0
0.00193702 0.00624121 0
0.00230152 0.0048181 0
0.00262044 0.00358654 0
0.00291122 0.00254134 0
0.00319603 0.00168582 0
0.00349418 0.00101125 0
0.00382149 0.000496438 0
0.00417442 0.000146137 0
-0.0070875 0.0386072 0
-0.0049739 0.0312875 0
-0.00300961 0.0248663 0
4.12738e-05 0.0174423 0
0.00210135 0.0158697 0