<?xml version="1.0"?>
<VTKFile type="UnstructuredGrid">
  <UnstructuredGrid>
  <Piece NumberOfPoints="3321"  NumberOfCells="1600">
    <Points>
      <DataArray type="Float64" NumberOfComponents="3" format="ascii">
0 0 0.1
1 0 0.1
1 0.5 0.1
0 0.5 0.1
0.025 0 0.1
0.05 0 0.1
0.075 0 0.1
0.1 0 0.1
0.125 0 0.1
0.15 0 0.1
0.175 0 0.1
0.2 0 0.1
0.225 0 0.1
0.25 0 0.1
0.275 0 0.1
0.3 0 0.1
0.325 0 0.1
0.35 0 0.1
0.375 0 0.1
0.4 0 0.1
0.425 0 0.1
0.45 0 0.1
0.475 0 0.1
0.5 0 0.1
0.525 0 0.1
0.55 0 0.1
0.575 0 0.1
0.6 0 0.1
0.625 0 0.1
0.65 0 0.1
0.675 0 0.1
0.7 0 0.1
0.725 0 0.1
0.75 0 0.1
0.775 0 0.1
0.8 0 0.1
0.825 0 0.1
0.85 0 0.1
0.875 0 0.1
0.9 0 0.1
0.925 0 0.1
0.95 0 0.1
0.975 0 0.1
0.0125 0 0.1
0.0375 0 0.1
0.0625 0 0.1
0.0875 0 0.1
0.1125 0 0.1
0.1375 0 0.1
0.1625 0 0.1
0.1875 0 0.1
0.2125 0 0.1
0.2375 0 0.1
0.2625 0 0.1
0.2875 0 0.1
0.3125 0 0.1
0.3375 0 0.1
0.3625 0 0.1
0.3875 0 0.1
0.4125 0 0.1
0.4375 0 0.1
0.4625 0 0.1
0.4875 0 0.1
0.5125 0 0.1
0.5375 0 0.1
0.5625 0 0.1
0.5875 0 0.1
0.6125 0 0.1
0.6375 0 0.1
0.6625 0 0.1
0.6875 0 0.1
0.7125 0 0.1
0.7375 0 0.1
0.7625 0 0.1
0.7875 0 0.1
0.8125 0 0.1
0.8375 0 0.1
0.8625 0 0.1
0.8875 0 0.1
0.9125 0 0.1
0.9375 0 0.1
0.9625 0 0.1
0.9875 0 0.1
1 0.025 0.1
1 0.05 0.1
1 0.075 0.1
1 0.1 0.1
1 0.125 0.1
1 0.15 0.1
1 0.175 0.1
1 0.2 0.1
1 0.225 0.1
1 0.25 0.1
1 0.275 0.1
1 0.3 0.1
1 0.325 0.1
1 0.35 0.1
1 0.375 0.1
1 0.4 0.1
1 0.425 0.1
1 0.45 0.1
1 0.475 0.1
1 0.0125 0.1
1 0.0375 0.1
1 0.0625 0.1
1 0.0875 0.1
1 0.1125 0.1
1 0.1375 0.1
1 0.1625 0.1
1 0.1875 0.1
1 0.2125 0.1
1 0.2375 0.1
1 0.2625 0.1
1 0.2875 0.1
1 0.3125 0.1
1 0.3375 0.1
1 0.3625 0.1
1 0.3875 0.1
1 0.4125 0.1
1 0.4375 0.1
1 0.4625 0.1
1 0.4875 0.1
0.975 0.5 0.1
0.95 0.5 0.1
0.925 0.5 0.1
0.9 0.5 0.1
0.875 0.5 0.1
0.85 0.5 0.1
0.825 0.5 0.1
0.8 0.5 0.1
0.775 0.5 0.1
0.75 0.5 0.1
0.725 0.5 0.1
0.7 0.5 0.1
0.675 0.5 0.1
0.65 0.5 0.1
0.625 0.5 0.1
0.6 0.5 0.1
0.575 0.5 0.1
0.55 0.5 0.1
0.525 0.5 0.1
0.5 0.5 0.1
0.475 0.5 0.1
0.45 0.5 0.1
0.425 0.5 0.1
0.4 0.5 0.1
0.375 0.5 0.1
0.35 0.5 0.1
0.325 0.5 0.1
0.3 0.5 0.1
0.275 0.5 0.1
0.25 0.5 0.1
0.225 0.5 0.1
0.2 0.5 0.1
0.175 0.5 0.1
0.15 0.5 0.1
0.125 0.5 0.1
0.1 0.5 0.1
0.075 0.5 0.1
0.05 0.5 0.1
0.025 0.5 0.1
0.9875 0.5 0.1
0.9625 0.5 0.1
0.9375 0.5 0.1
0.9125 0.5 0.1
0.8875 0.5 0.1
0.8625 0.5 0.1
0.8375 0.5 0.1
0.8125 0.5 0.1
0.7875 0.5 0.1
0.7625 0.5 0.1
0.7375 0.5 0.1
0.7125 0.5 0.1
0.6875 0.5 0.1
0.6625 0.5 0.1
0.6375 0.5 0.1
0.6125 0.5 0.1
0.5875 0.5 0.1
0.5625 0.5 0.1
0.5375 0.5 0.1
0.5125 0.5 0.1
0.4875 0.5 0.1
0.4625 0.5 0.1
0.4375 0.5 0.1
0.4125 0.5 0.1
0.3875 0.5 0.1
0.3625 0.5 0.1
0.3375 0.5 0.1
0.3125 0.5 0.1
0.2875 0.5 0.1
0.2625 0.5 0.1
0.2375 0.5 0.1
0.2125 0.5 0.1
0.1875 0.5 0.1
0.1625 0.5 0.1
0.1375 0.5 0.1
0.1125 0.5 0.1
0.0875 0.5 0.1
0.0625 0.5 0.1
0.0375 0.5 0.1
0.0125 0.5 0.1
0 0.475 0.1
0 0.45 0.1
0 0.425 0.1
0 0.4 0.1
0 0.375 0.1
0 0.35 0.1
0 0.325 0.1
0 0.3 0.1
0 0.275 0.1
0 0.25 0.1
0 0.225 0.1
0 0.2 0.1
0 0.175 0.1
0 0.15 0.1
0 0.125 0.1
0 0.1 0.1
0 0.075 0.1
0 0.05 0.1
0 0.025 0.1
0 0.4875 0.1
0 0.4625 0.1
0 0.4375 0.1
0 0.4125 0.1
0 0.3875 0.1
0 0.3625 0.1
0 0.3375 0.1
0 0.3125 0.1
0 0.2875 0.1
0 0.2625 0.1
0 0.2375 0.1
0 0.2125 0.1
0 0.1875 0.1
0 0.1625 0.1
0 0.1375 0.1
0 0.1125 0.1
0 0.0875 0.1
0 0.0625 0.1
0 0.0375 0.1
0 0.0125 0.1
0.975 0.475 0.1
0.975 0.45 0.1
0.975 0.425 0.1
0.975 0.4 0.1
0.975 0.375 0.1
0.975 0.35 0.1
0.975 0.325 0.1
0.975 0.3 0.1
0.975 0.275 0.1
0.975 0.25 0.1
0.975 0.225 0.1
0.975 0.2 0.1
0.975 0.175 0.1
0.975 0.15 0.1
0.975 0.125 0.1
0.975 0.1 0.1
0.975 0.075 0.1
0.975 0.05 0.1
0.975 0.025 0.1
0.95 0.475 0.1
0.95 0.45 0.1
0.95 0.425 0.1
0.95 0.4 0.1
0.95 0.375 0.1
0.95 0.35 0.1
0.95 0.325 0.1
0.95 0.3 0.1
0.95 0.275 0.1
0.95 0.25 0.1
0.95 0.225 0.1
0.95 0.2 0.1
0.95 0.175 0.1
0.95 0.15 0.1
0.95 0.125 0.1
0.95 0.1 0.1
0.95 0.075 0.1
0.95 0.05 0.1
0.95 0.025 0.1
0.925 0.475 0.1
0.925 0.45 0.1
0.925 0.425 0.1
0.925 0.4 0.1
0.925 0.375 0.1
0.925 0.35 0.1
0.925 0.325 0.1
0.925 0.3 0.1
0.925 0.275 0.1
0.925 0.25 0.1
0.925 0.225 0.1
0.925 0.2 0.1
0.925 0.175 0.1
0.925 0.15 0.1
0.925 0.125 0.1
0.925 0.1 0.1
0.925 0.075 0.1
0.925 0.05 0.1
0.925 0.025 0.1
0.9 0.475 0.1
0.9 0.45 0.1
0.9 0.425 0.1
0.9 0.4 0.1
0.9 0.375 0.1
0.9 0.35 0.1
0.9 0.325 0.1
0.9 0.3 0.1
0.9 0.275 0.1
0.9 0.25 0.1
0.9 0.225 0.1
0.9 0.2 0.1
0.9 0.175 0.1
0.9 0.15 0.1
0.9 0.125 0.1
0.9 0.1 0.1
0.9 0.075 0.1
0.9 0.05 0.1
0.9 0.025 0.1
0.875 0.475 0.1
0.875 0.45 0.1
0.875 0.425 0.1
0.875 0.4 0.1
0.875 0.375 0.1
0.875 0.35 0.1
0.875 0.325 0.1
0.875 0.3 0.1
0.875 0.275 0.1
0.875 0.25 0.1
0.875 0.225 0.1
0.875 0.2 0.1
0.875 0.175 0.1
0.875 0.15 0.1
0.875 0.125 0.1
0.875 0.1 0.1
0.875 0.075 0.1
0.875 0.05 0.1
0.875 0.025 0.1
0.85 0.475 0.1
0.85 0.45 0.1
0.85 0.425 0.1
0.85 0.4 0.1
0.85 0.375 0.1
0.85 0.35 0.1
0.85 0.325 0.1
0.85 0.3 0.1
0.85 0.275 0.1
0.85 0.25 0.1
0.85 0.225 0.1
0.85 0.2 0.1
0.85 0.175 0.1
0.85 0.15 0.1
0.85 0.125 0.1
0.85 0.1 0.1
0.85 0.075 0.1
0.85 0.05 0.1
0.85 0.025 0.1
0.825 0.475 0.1
0.825 0.45 0.1
0.825 0.425 0.1
0.825 0.4 0.1
0.825 0.375 0.1
0.825 0.35 0.1
0.825 0.325 0.1
0.825 0.3 0.1
0.825 0.275 0.1
0.825 0.25 0.1
0.825 0.225 0.1
0.825 0.2 0.1
0.825 0.175 0.1
0.825 0.15 0.1
0.825 0.125 0.1
0.825 0.1 0.1
0.825 0.075 0.1
0.825 0.05 0.1
0.825 0.025 0.1
0.8 0.475 0.1
0.8 0.45 0.1
0.8 0.425 0.1
0.8 0.4 0.1
0.8 0.375 0.1
0.8 0.35 0.1
0.8 0.325 0.1
0.8 0.3 0.1
0.8 0.275 0.1
0.8 0.25 0.1
0.8 0.225 0.1
0.8 0.2 0.1
0.8 0.175 0.1
0.8 0.15 0.1
0.8 0.125 0.1
0.8 0.1 0.1
0.8 0.075 0.1
0.8 0.05 0.1
0.8 0.025 0.1
0.775 0.475 0.1
0.775 0.45 0.1
0.775 0.425 0.1
0.775 0.4 0.1
0.775 0.375 0.1
0.775 0.35 0.1
0.775 0.325 0.1
0.775 0.3 0.1
0.775 0.275 0.1
0.775 0.25 0.1
0.775 0.225 0.1
0.775 0.2 0.1
0.775 0.175 0.1
0.775 0.15 0.1
0.775 0.125 0.1
0.775 0.1 0.1
0.775 0.075 0.1
0.775 0.05 0.1
0.775 0.025 0.1
0.75 0.475 0.1
0.75 0.45 0.1
0.75 0.425 0.1
0.75 0.4 0.1
0.75 0.375 0.1
0.75 0.35 0.1
0.75 0.325 0.1
0.75 0.3 0.1
0.75 0.275 0.1
0.75 0.25 0.1
0.75 0.225 0.1
0.75 0.2 0.1
0.75 0.175 0.1
0.75 0.15 0.1
0.75 0.125 0.1
0.75 0.1 0.1
0.75 0.075 0.1
0.75 0.05 0.1
0.75 0.025 0.1
0.725 0.475 0.1
0.725 0.45 0.1
0.725 0.425 0.1
0.725 0.4 0.1
0.725 0.375 0.1
0.725 0.35 0.1
0.725 0.325 0.1
0.725 0.3 0.1
0.725 0.275 0.1
0.725 0.25 0.1
0.725 0.225 0.1
0.725 0.2 0.1
0.725 0.175 0.1
0.725 0.15 0.1
0.725 0.125 0.1
0.725 0.1 0.1
0.725 0.075 0.1
0.725 0.05 0.1
0.725 0.025 0.1
0.7 0.475 0.1
0.7 0.45 0.1
0.7 0.425 0.1
0.7 0.4 0.1
0.7 0.375 0.1
0.7 0.35 0.1
0.7 0.325 0.1
0.7 0.3 0.1
0.7 0.275 0.1
0.7 0.25 0.1
0.7 0.225 0.1
0.7 0.2 0.1
0.7 0.175 0.1
0.7 0.15 0.1
0.7 0.125 0.1
0.7 0.1 0.1
0.7 0.075 0.1
0.7 0.05 0.1
0.7 0.025 0.1
0.675 0.475 0.1
0.675 0.45 0.1
0.675 0.425 0.1
0.675 0.4 0.1
0.675 0.375 0.1
0.675 0.35 0.1
0.675 0.325 0.1
0.675 0.3 0.1
0.675 0.275 0.1
0.675 0.25 0.1
0.675 0.225 0.1
0.675 0.2 0.1
0.675 0.175 0.1
0.675 0.15 0.1
0.675 0.125 0.1
0.675 0.1 0.1
0.675 0.075 0.1
0.675 0.05 0.1
0.675 0.025 0.1
0.65 0.475 0.1
0.65 0.45 0.1
0.65 0.425 0.1
0.65 0.4 0.1
0.65 0.375 0.1
0.65 0.35 0.1
0.65 0.325 0.1
0.65 0.3 0.1
0.65 0.275 0.1
0.65 0.25 0.1
0.65 0.225 0.1
0.65 0.2 0.1
0.65 0.175 0.1
0.65 0.15 0.1
0.65 0.125 0.1
0.65 0.1 0.1
0.65 0.075 0.1
0.65 0.05 0.1
0.65 0.025 0.1
0.625 0.475 0.1
0.625 0.45 0.1
0.625 0.425 0.1
0.625 0.4 0.1
0.625 0.375 0.1
0.625 0.35 0.1
0.625 0.325 0.1
0.625 0.3 0.1
0.625 0.275 0.1
0.625 0.25 0.1
0.625 0.225 0.1
0.625 0.2 0.1
0.625 0.175 0.1
0.625 0.15 0.1
0.625 0.125 0.1
0.625 0.1 0.1
0.625 0.075 0.1
0.625 0.05 0.1
0.625 0.025 0.1
0.6 0.475 0.1
0.6 0.45 0.1
0.6 0.425 0.1
0.6 0.4 0.1
0.6 0.375 0.1
0.6 0.35 0.1
0.6 0.325 0.1
0.6 0.3 0.1
0.6 0.275 0.1
0.6 0.25 0.1
0.6 0.225 0.1
0.6 0.2 0.1
0.6 0.175 0.1
0.6 0.15 0.1
0.6 0.125 0.1
0.6 0.1 0.1
0.6 0.075 0.1
0.6 0.05 0.1
0.6 0.025 0.1
0.575 0.475 0.1
0.575 0.45 0.1
0.575 0.425 0.1
0.575 0.4 0.1
0.575 0.375 0.1
0.575 0.35 0.1
0.575 0.325 0.1
0.575 0.3 0.1
0.575 0.275 0.1
0.575 0.25 0.1
0.575 0.225 0.1
0.575 0.2 0.1
0.575 0.175 0.1
0.575 0.15 0.1
0.575 0.125 0.1
0.575 0.1 0.1
0.575 0.075 0.1
0.575 0.05 0.1
0.575 0.025 0.1
0.55 0.475 0.1
0.55 0.45 0.1
0.55 0.425 0.1
0.55 0.4 0.1
0.55 0.375 0.1
0.55 0.35 0.1
0.55 0.325 0.1
0.55 0.3 0.1
0.55 0.275 0.1
0.55 0.25 0.1
0.55 0.225 0.1
0.55 0.2 0.1
0.55 0.175 0.1
0.55 0.15 0.1
0.55 0.125 0.1
0.55 0.1 0.1
0.55 0.075 0.1
0.55 0.05 0.1
0.55 0.025 0.1
0.525 0.475 0.1
0.525 0.45 0.1
0.525 0.425 0.1
0.525 0.4 0.1
0.525 0.375 0.1
0.525 0.35 0.1
0.525 0.325 0.1
0.525 0.3 0.1
0.525 0.275 0.1
0.525 0.25 0.1
0.525 0.225 0.1
0.525 0.2 0.1
0.525 0.175 0.1
0.525 0.15 0.1
0.525 0.125 0.1
0.525 0.1 0.1
0.525 0.075 0.1
0.525 0.05 0.1
0.525 0.025 0.1
0.5 0.475 0.1
0.5 0.45 0.1
0.5 0.425 0.1
0.5 0.4 0.1
0.5 0.375 0.1
0.5 0.35 0.1
0.5 0.325 0.1
0.5 0.3 0.1
0.5 0.275 0.1
0.5 0.25 0.1
0.5 0.225 0.1
0.5 0.2 0.1
0.5 0.175 0.1
0.5 0.15 0.1
0.5 0.125 0.1
0.5 0.1 0.1
0.5 0.075 0.1
0.5 0.05 0.1
0.5 0.025 0.1
0.475 0.475 0.1
0.475 0.45 0.1
0.475 0.425 0.1
0.475 0.4 0.1
0.475 0.375 0.1
0.475 0.35 0.1
0.475 0.325 0.1
0.475 0.3 0.1
0.475 0.275 0.1
0.475 0.25 0.1
0.475 0.225 0.1
0.475 0.2 0.1
0.475 0.175 0.1
0.475 0.15 0.1
0.475 0.125 0.1
0.475 0.1 0.1
0.475 0.075 0.1
0.475 0.05 0.1
0.475 0.025 0.1
0.45 0.475 0.1
0.45 0.45 0.1
0.45 0.425 0.1
0.45 0.4 0.1
0.45 0.375 0.1
0.45 0.35 0.1
0.45 0.325 0.1
0.45 0.3 0.1
0.45 0.275 0.1
0.45 0.25 0.1
0.45 0.225 0.1
0.45 0.2 0.1
0.45 0.175 0.1
0.45 0.15 0.1
0.45 0.125 0.1
0.45 0.1 0.1
0.45 0.075 0.1
0.45 0.05 0.1
0.45 0.025 0.1
0.425 0.475 0.1
0.425 0.45 0.1
0.425 0.425 0.1
0.425 0.4 0.1
0.425 0.375 0.1
0.425 0.35 0.1
0.425 0.325 0.1
0.425 0.3 0.1
0.425 0.275 0.1
0.425 0.25 0.1
0.425 0.225 0.1
0.425 0.2 0.1
0.425 0.175 0.1
0.425 0.15 0.1
0.425 0.125 0.1
0.425 0.1 0.1
0.425 0.075 0.1
0.425 0.05 0.1
0.425 0.025 0.1
0.4 0.475 0.1
0.4 0.45 0.1
0.4 0.425 0.1
0.4 0.4 0.1
0.4 0.375 0.1
0.4 0.35 0.1
0.4 0.325 0.1
0.4 0.3 0.1
0.4 0.275 0.1
0.4 0.25 0.1
0.4 0.225 0.1
0.4 0.2 0.1
0.4 0.175 0.1
0.4 0.15 0.1
0.4 0.125 0.1
0.4 0.1 0.1
0.4 0.075 0.1
0.4 0.05 0.1
0.4 0.025 0.1
0.375 0.475 0.1
0.375 0.45 0.1
0.375 0.425 0.1
0.375 0.4 0.1
0.375 0.375 0.1
[...]
    <PointData>
      <DataArray type="Float64" NumberOfComponents="3" Name="Velocity" format="ascii">
0 0 0
0 0 0
0 0 0
0 0 0
0 0 0
0 0 0
0 0 0
0 0 0
0 0 0
0 0 0
0 0 0
0 0 0
0 0 0
0 0 0
0 0 0
0 0 0
0 0 0
0 0 0
0 0 0
0 0 0
0 0 0
0 0 0
0 0 0
0 0 0
0 0 0
0 0 0
0 0 0
0 0 0
0 0 0
0 0 0
0 0 0
0 0 0
0 0 0
0 0 0
0 0 0
0 0 0
0 0 0
0 0 0
0 0 0
0 0 0
0 0 0
0 0 0
0 0 0
0 0 0
0 0 0
0 0 0
0 0 0
0 0 0
0 0 0
0 0 0
0 0 0
0 0 0
0 0 0
0 0 0
0 0 0
0 0 0
0 0 0
0 0 0
0 0 0
0 0 0
0 0 0
0 0 0
0 0 0
0 0 0
0 0 0
0 0 0
0 0 0
0 0 0
0 0 0
0 0 0
0 0 0
0 0 0
0 0 0
0 0 0
0 0 0
0 0 0
0 0 0
0 0 0
0 0 0
0 0 0
0 0 0
0 0 0
0 0 0
0 0 0
0 0 0
0 0 0
0 0 0
0 0 0
0 0 0
0 0 0
0 0 0
0 0 0
0 0 0
0 0 0
0 0 0
0 0 0
0 0 0
0 0 0
0 0 0
0 0 0
0 0 0
0 0 0
0 0 0
0 0 0
0 0 0
0 0 0
0 0 0
0 0 0
0 0 0
0 0 0
0 0 0
0 0 0
0 0 0
0 0 0
0 0 0
0 0 0
0 0 0
0 0 0
0 0 0
0 0 0
0 0 0
0 0 0
-0.00283107 -0.0422201 0
-0.00996514 -0.0775092 0
-0.0204376 -0.10674 0
-0.0325696 -0.130511 0
-0.0464255 -0.149009 0
-0.0615845 -0.16184 0
-0.0766953 -0.169617 0
-0.0915827 -0.172477 0
-0.105917 -0.170847 0
-0.119089 -0.165565 0
-0.131023 -0.156678 0
-0.141551 -0.144825 0
-0.150547 -0.130333 0
-0.158222 -0.113652 0
-0.164492 -0.0955802 0
-0.169267 -0.0761697 0
-0.172704 -0.0559214 0
-0.174713 -0.0352384 0
-0.175411 -0.0143346 0
-0.174879 0.00622229 0
-0.173128 0.0264557 0
-0.170238 0.0463182 0
-0.166182 0.0653925 0
-0.160895 0.0836139 0
-0.154448 0.100669 0
-0.146843 0.116276 0
-0.138139 0.130347 0
-0.128403 0.142314 0
-0.117586 0.151941 0
-0.105848 0.158917 0
-0.0933819 0.162784 0
-0.0801958 0.163452 0
-0.0667115 0.160314 0
-0.0534422 0.152798 0
-0.0408103 0.140197 0
-0.0288463 0.122115 0
-0.0181524 0.0988297 0
-0.00920671 0.0702993 0
-0.00312514 0.0363518 0
-0.00124273 -0.0206047 0
-0.0059223 -0.0606548 0
-0.0149882 -0.0928669 0
-0.0263571 -0.119351 0
-0.0393551 -0.1405 0
-0.0540377 -0.156223 0
-0.0692421 -0.166495 0
-0.0842648 -0.171821 0
-0.0989491 -0.17235 0
-0.112722 -0.168861 0
-0.125272 -0.161704 0
-0.136517 -0.151242 0
-0.146274 -0.138054 0
-0.154587 -0.122362 0
-0.161578 -0.104926 0
-0.167088 -0.0861772 0
-0.171194 -0.0662606 0
-0.173922 -0.045798 0
-0.175259 -0.0249309 0
-0.175323 -0.00409257 0
-0.174166 0.0163141 0
-0.171834 0.0364292 0
-0.168365 0.0559381 0
-0.163684 0.0746163 0
-0.157803 0.0923304 0
-0.15077 0.10868 0
-0.142594 0.123586 0
-0.13337 0.13666 0
-0.123081 0.147481 0
-0.111769 0.155859 0
-0.0996702 0.161288 0
-0.086822 0.163574 0
-0.0734243 0.162429 0
-0.0600062 0.157166 0
-0.0470388 0.147231 0
-0.0346777 0.131864 0
-0.0232833 0.111157 0
-0.013368 0.085279 0
-0.00569311 0.0540966 0
-0.00294362 0.0170542 0
0 0 0
0 0 0
0 0 0
0 0 0
0 0 0
0 0 0
0 0 0
0 0 0
0 0 0
0 0 0
0 0 0
0 0 0
0 0 0
0 0 0
0 0 0
0 0 0
0 0 0
0 0 0
0 0 0
0 0 0
0 0 0
0 0 0
0 0 0
0 0 0
0 0 0
0 0 0
0 0 0
0 0 0
0 0 0
0 0 0
0 0 0
0 0 0
0 0 0
0 0 0
0 0 0
0 0 0
0 0 0
0 0 0
0 0 0
-0.00447246 -0.0362039 0
-0.00440224 -0.031236 0
-0.00378939 -0.0262961 0
-0.00249928 -0.0223228 0
-0.00188081 -0.0194239 0
-0.00163534 -0.016773 0
-0.00148742 -0.0142972 0
-0.00136242 -0.0120021 0
-0.00124239 -0.00989222 0
-0.00112266 -0.00796945 0
-0.00100125 -0.0062358 0
-0.000876461 -0.00469488 0
-0.000746574 -0.00335289 0
-0.000610101 -0.00221883 0
-0.000466581 -0.00130395 0
-0.00031815 -0.000620472 0
-0.000170915 -0.000179267 0
-2.88872e-05 2.56429e-05 0
6.04615e-05 5.26481e-05 0
-0.0107826 -0.0667475 0
-0.0107129 -0.0580605 0
-0.00965746 -0.0504535 0
-0.0075989 -0.0438346 0
-0.00629462 -0.0381163 0
-0.00559744 -0.0328461 0
-0.00509683 -0.0280269 0
-0.00465984 -0.0236188 0
-0.00424547 -0.0195954 0
-0.00383852 -0.0159417 0
-0.0034307 -0.0126512 0
-0.00301543 -0.00972391 0
-0.00258675 -0.00716578 0
-0.00213978 -0.00498732 0
-0.00167254 -0.00320192 0
-0.00118926 -0.00182257 0
-0.000706143 -0.000854769 0
-0.000264751 -0.000280362 0
3.27629e-05 -3.70574e-05 0
-0.0197666 -0.0928949 0
-0.0190397 -0.0815428 0
-0.0174386 -0.0716812 0
-0.0149977 -0.0629698 0
-0.0131203 -0.0550365 0
-0.0117914 -0.0475649 0
-0.0107277 -0.0407098 0
-0.00978796 -0.0344509 0
-0.00890773 -0.0287487 0
-0.00805448 -0.0235742 0
-0.00720821 -0.0189113 0
-0.00635392 -0.0147539 0
-0.00547926 -0.0111038 0
-0.00457499 -0.00796868 0
-0.00363775 -0.00535919 0
-0.0026757 -0.00328487 0
-0.0017189 -0.00174732 0
-0.000838493 -0.00072975 0
-0.000177963 -0.000184798 0
-0.0309962 -0.114402 0
-0.0293823 -0.101149 0
-0.0271063 -0.089491 0
-0.0242684 -0.0790617 0
-0.02189 -0.0694862 0
-0.0198548 -0.0603588 0
-0.0180987 -0.0518946 0
-0.0165152 -0.0441218 0
-0.0150311 -0.0370185 0
-0.0135996 -0.0305584 0
-0.0121884 -0.0247225 0
-0.0107731 -0.0195011 0
-0.00933421 -0.0148922 0
-0.00785771 -0.0108994 0
-0.00633878 -0.00753004 0
-0.00478886 -0.0047914 0
-0.00324799 -0.00268619 0
-0.00180464 -0.001207 0
-0.000625562 -0.000329112 0
-0.0438768 -0.131163 0
-0.0413065 -0.116646 0
-0.0383666 -0.103723 0
-0.0350296 -0.0919697 0
-0.0320687 -0.0812235 0
-0.0293283 -0.0709205 0
-0.0268395 -0.0612697 0
-0.0245384 -0.0523386 0
-0.0223615 -0.0441328 0
-0.0202585 -0.0366395 0
-0.0181897 -0.0298446 0
-0.0161232 -0.0237385 0
-0.014033 -0.0183176 0
-0.0119003 -0.0135834 0
-0.00971772 -0.00954175 0
-0.00749711 -0.00620057 0
-0.00528168 -0.00356871 0
-0.00316441 -0.00165452 0
-0.00131313 -0.000464949 0
-0.0577726 -0.143216 0
-0.0542478 -0.128044 0
-0.0507307 -0.114398 0
-0.0468847 -0.101819 0
-0.0432371 -0.0902576 0
-0.0398046 -0.0791377 0
-0.0365833 -0.0686622 0
-0.0335385 -0.0589073 0
-0.0306244 -0.0498956 0
-0.0277959 -0.0416272 0
-0.0250119 -0.0340959 0
-0.0222359 -0.0272956 0
-0.0194369 -0.0212237 0
-0.0165915 -0.015882 0
-0.0136881 -0.0112775 0
-0.0107349 -0.00742219 0
-0.00777051 -0.00433465 0
-0.00487963 -0.00204223 0
-0.00221177 -0.000583384 0
-0.0720701 -0.150723 0
-0.0676917 -0.135393 0
-0.0636735 -0.12149 0
-0.0593928 -0.108571 0
-0.055064 -0.0965651 0
-0.0509403 -0.0849607 0
-0.0469958 -0.0739859 0
-0.0432081 -0.063717 0
-0.0395457 -0.0541836 0
-0.0359712 -0.0453953 0
-0.0324455 -0.0373529 0
-0.0289307 -0.0300557 0
-0.0253922 -0.0235041 0
-0.0218016 -0.0177029 0
-0.0181414 -0.0126624 0
-0.0144119 -0.00840121 0
-0.0106401 -0.00494935 0
-0.00689185 -0.00235315 0
-0.00328484 -0.000678519 0
-0.0862671 -0.153802 0
-0.0811713 -0.138767 0
-0.0767441 -0.125026 0
-0.0721096 -0.112167 0
-0.0671842 -0.10011 0
-0.0624033 -0.0883716 0
-0.0577639 -0.0772122 0
-0.0532561 -0.0667215 0
-0.04886 -0.0569368 0
-0.044546 -0.047875 0
-0.0402789 -0.0395442 0
-0.0360211 -0.0319492 0
-0.0317351 -0.0250953 0
-0.0273876 -0.0189914 0
-0.0229534 -0.0136533 0
-0.0184212 -0.00910713 0
-0.0138009 -0.00539461 0
-0.00913171 -0.00257887 0
-0.00449095 -0.000747777 0
-0.0999203 -0.152926 0
-0.094276 -0.13853 0
-0.0895685 -0.125273 0
-0.0846677 -0.112779 0
-0.0792438 -0.100979 0
-0.073875 -0.0894188 0
-0.0685932 -0.0783692 0
-0.063409 -0.0679306 0
-0.0583148 -0.0581486 0
-0.0532898 -0.0490481 0
-0.0483033 -0.0406441 0
-0.0433188 -0.0329474 0
-0.038297 -0.0259689 0
-0.0331992 -0.0197228 0
-0.0279909 -0.0142309 0
-0.0226467 -0.00952713 0
-0.0171553 -0.00566349 0
-0.0115246 -0.00271666 0
-0.00578656 -0.000790492 0
-0.112739 -0.148563 0
-0.106722 -0.13501 0
-0.101868 -0.122479 0
-0.0967943 -0.110596 0
-0.0909492 -0.0993237 0
-0.0850677 -0.0882167 0
-0.0792127 -0.0775414 0
-0.0734131 -0.0674041 0
-0.0676742 -0.0578591 0
-0.061984 -0.0489388 0
-0.0563173 -0.0406652 0
-0.0506395 -0.0330555 0
-0.0449098 -0.026126 0
-0.0390839 -0.0198965 0
-0.0331173 -0.0143947 0
-0.0269686 -0.00966147 0
-0.0206029 -0.00575702 0
-0.0139944 -0.0027676 0
-0.0071281 -0.000807151 0
-0.124509 -0.140957 0
-0.118278 -0.128449 0
-0.113392 -0.11686 0
-0.10822 -0.105843 0
-0.102031 -0.0953501 0
-0.0957266 -0.0849343 0
-0.0893808 -0.0748613 0
-0.0830397 -0.0652449 0
-0.0767219 -0.0561468 0
-0.0704252 -0.0476064 0
-0.0641308 -0.0396519 0
-0.0578067 -0.0323061 0
-0.0514105 -0.0255906 0
-0.0448926 -0.0195304 0
-0.0381979 -0.0141582 0
-0.0312685 -0.00952015 0
-0.0240449 -0.00568202 0
-0.016467 -0.00273551 0
-0.00847346 -0.000799007 0
-0.135047 -0.130673 0
-0.128762 -0.119339 0
-0.123933 -0.108843 0
-0.11872 -0.0988679 0
-0.11228 -0.0893229 0
-0.105643 -0.07978 0
-0.0988917 -0.070497 0
-0.0920882 -0.0615885 0
-0.0852647 -0.0531207 0
-0.078429 -0.0451379 0
-0.0715689 -0.037673 0
-0.0646553 -0.0307536 0
-0.0576451 -0.0244054 0
-0.050483 -0.0186573 0
-0.0431037 -0.0135459 0
-0.0354327 -0.00912048 0
-0.0273865 -0.00544956 0
-0.0188718 -0.00262611 0
-0.00978312 -0.000767853 0
-0.144184 -0.118006 0
-0.138027 -0.108043 0
-0.133348 -0.0987691 0
-0.128143 -0.0899601 0
-0.121537 -0.0815007 0
-0.114649 -0.0729772 0
-0.107574 -0.0646365 0
-0.100388 -0.0565921 0
-0.0931341 -0.0489113 0
-0.0858314 -0.0416409 0
-0.0784737 -0.0348166 0
-0.0710352 -0.0284689 0
-0.0634717 -0.0226265 0
-0.0557234 -0.0173208 0
-0.0477149 -0.0125902 0
-0.0393559 -0.00848517 0
-0.0305403 -0.00507384 0
-0.0211439 -0.00244658 0
-0.0110209 -0.000715872 0
-0.15185 -0.103257 0
-0.145913 -0.0948238 0
-0.141511 -0.0869444 0
-0.136366 -0.0794145 0
-0.129672 -0.0721451 0
-0.122609 -0.0647548 0
-0.115287 -0.0574785 0
-0.107794 -0.0504261 0
-0.100186 -0.0436635 0
-0.0924898 -0.0372373 0
-0.0847063 -0.0311839 0
-0.0768123 -0.0255349 0
-0.0687634 -0.0203202 0
-0.060495 -0.0155722 0
-0.0519228 -0.0113293 0
-0.0429424 -0.00764077 0
-0.0334271 -0.00457125 0
-0.023225 -0.00220507 0
-0.0121545 -0.000645519 0
-0.158092 -0.0870299 0
-0.152382 -0.0801486 0
-0.14832 -0.0737357 0
-0.143314 -0.0675435 0
-0.136594 -0.0615188 0
-0.129422 -0.0553421 0
-0.121919 -0.0492252 0
-0.11419 -0.0432677 0
-0.1063 -0.0375307 0
-0.0982835 -0.032058 0
-0.0901474 -0.026885 0
-0.0818709 -0.0220424 0
-0.0734091 -0.0175599 0
-0.0646936 -0.0134688 0
-0.0556324 -0.00980577 0
-0.0461085 -0.00661646 0
-0.0359776 -0.00395964 0
-0.0250642 -0.00191039 0
-0.013156 -0.000559426 0
-0.162961 -0.0695841 0
-0.157482 -0.0643153 0
-0.153744 -0.0593816 0
-0.148948 -0.0545771 0
-0.14224 -0.0498575 0
-0.135005 -0.0449614 0
-0.127381 -0.0400786 0
-0.11948 -0.035297 0
-0.111377 -0.0306708 0
-0.103113 -0.0262395 0
-0.0946978 -0.0220354 0
-0.0861136 -0.0180874 0
-0.0773152 -0.014423 0
-0.068231 -0.0110709 0
-0.0587627 -0.00806424 0
-0.0487831 -0.00544304 0
-0.0381334 -0.00325779 0
-0.0266186 -0.00157177 0
-0.014002 -0.000460329 0
-0.166514 -0.0512916 0
-0.161271 -0.0476559 0
-0.157815 -0.0441857 0
-0.153215 -0.0407768 0
-0.14655 -0.0374004 0
-0.139296 -0.0338341 0
-0.131603 -0.0302403 0
-0.123591 -0.0266947 0
-0.115341 -0.0232434 0
-0.106899 -0.0199203 0
-0.0982784 -0.0167537 0
-0.0894624 -0.0137687 0
-0.0804061 -0.0109894 0
-0.0710357 -0.00844095 0
-0.0612481 -0.00615091 0
-0.0509084 -0.00415216 0
-0.0398468 -0.00248492 0
-0.0278537 -0.0011986 0
-0.0146735 -0.000351001 0
-0.168806 -0.0325166 0
-0.163799 -0.0304651 0
-0.160561 -0.0284383 0
-0.156106 -0.026418 0
-0.149493 -0.0243924 0
-0.142253 -0.0221809 0
-0.134537 -0.0199107 0
-0.12647 -0.0176408 0
-0.118136 -0.0154081 0
-0.109584 -0.0132397 0
-0.10083 -0.0111586 0
-0.0918582 -0.00918555 0
-0.0826244 -0.00734004 0
-0.0730532 -0.0056419 0
-0.0630385 -0.0041124 0
-0.0524405 -0.00277571 0
-0.0410819 -0.00166035 0
-0.0287432 -0.000800266 0
-0.0151565 -0.000234208 0
-0.169867 -0.0134397 0
-0.165058 -0.0129167 0
-0.161953 -0.0123372 0
-0.157601 -0.0117237 0
-0.151048 -0.0110624 0
-0.143851 -0.0102171 0
-0.136155 -0.00928603 0
-0.128085 -0.00831232 0
-0.119726 -0.00732224 0
-0.11113 -0.00633544 0
-0.102313 -0.00536869 0
-0.0932613 -0.00443721 0
-0.0839308 -0.00355525 0
-0.0742461 -0.00273661 0
-0.0640996 -0.00199514 0
-0.0533492 -0.00134541 0
-0.041814 -0.000803233 0
-0.0292695 -0.000386084 0
-0.0154413 -0.000112675 0
-0.169663 0.00556802 0
-0.164989 0.00465202 0
-0.161956 0.00381454 0
-0.157687 0.00304718 0
-0.151213 0.00236309 0
-0.144086 0.00185002 0
-0.136447 0.00144335 0
-0.128422 0.00111813 0
-0.120095 0.00085974 0
-0.111517 0.000656917 0
-0.102707 0.00049961 0
-0.0936506 0.000378567 0
-0.0843046 0.000285421 0
-0.0745943 0.000212899 0
-0.0644128 0.000155055 0
-0.0536181 0.000107492 0
-0.0420297 6.76042e-05 0
-0.029423 3.484e-05 0
-0.0155231 1.09359e-05 0
-0.168146 0.0243203 0
-0.163547 0.0220103 0
-0.160584 0.0197948 0
-0.156392 0.0176846 0
-0.150005 0.0156783 0
-0.142968 0.0138239 0
-0.135421 0.012094 0
-0.127485 0.0104827 0
-0.119244 0.00898727 0
-0.110747 0.0076048 0
-0.102011 0.00633207 0
-0.093024 0.00516591 0
-0.0837428 0.00410402 0
-0.0740946 0.00314578 0
-0.0639748 0.00229331 0
-0.0532445 0.00155243 0
-0.041727 0.000933764 0
-0.0292023 0.000453623 0
-0.0154012 0.000134038 0
-0.165303 0.0426937 0
-0.160736 0.0390256 0
-0.157846 0.0354531 0
-0.153722 0.0320055 0
-0.147437 0.0286867 0
-0.140516 0.0255126 0
-0.133096 0.0224863 0
-0.125295 0.0196174 0
-0.117193 0.0169132 0
-0.108837 0.0143787 0
-0.100243 0.0120171 0
-0.0913975 0.00983117 0
-0.0822602 0.0078244 0
-0.0727604 0.00600265 0
-0.0627978 0.00437581 0
-0.0522391 0.00295958 0
-0.0409148 0.00177734 0
-0.0286142 0.000861634 0
-0.0150794 0.000254123 0
-0.1612 0.0603264 0
-0.156643 0.0553715 0
-0.153775 0.0505067 0
-0.149707 0.0457625 0
-0.14354 0.0411726 0
-0.136764 0.0367208 0
-0.12951 0.0324422 0
-0.121891 0.0283608 0
-0.113981 0.0244935 0
-0.105825 0.0208521 0
-0.0974375 0.017446 0
-0.0888053 0.0142831 0
-0.0798889 0.0113724 0
-0.0706217 0.00872571 0
-0.0609089 0.00635998 0
-0.0506254 0.00429999 0
-0.0396124 0.00258093 0
-0.0276728 0.0012505 0
-0.0145655 0.000368758 0
-0.155881 0.0770831 0
-0.151334 0.0708459 0
-0.148428 0.0647174 0
-0.144402 0.0587233 0
-0.138369 0.0529198 0
-0.131768 0.0472527 0
-0.124719 0.0417847 0
-0.117327 0.0365543 0
-0.109663 0.0315871 0
-0.101766 0.0269017 0
-0.0936491 0.0225128 0
-0.085299 0.0184331 0
-0.0766781 0.0146762 0
-0.0677242 0.0112589 0
-0.0583497 0.00820446 0
-0.0484399 0.00554552 0
-0.0378497 0.00332765 0
-0.0264 0.00161207 0
-0.0138715 0.000475582 0
-0.149367 0.0927045 0
-0.144833 0.0852025 0
-0.141857 0.0778359 0
-0.137872 0.0706576 0
-0.131994 0.0637187 0
-0.125599 0.0569171 0
-0.118795 0.0503409 0
-0.111678 0.0440425 0
-0.104312 0.0380565 0
-0.0967323 0.0324076 0
-0.0889485 0.0271149 0
-0.0809472 0.0221953 0
-0.072693 0.017666 0
-0.0641289 0.013548 0
-0.0551757 0.00986926 0
-0.0457311 0.00666894 0
-0.0356667 0.0040011 0
-0.0248248 0.00193846 0
-0.0130133 0.000572293 0
-0.141716 0.106915 0
-0.137179 0.098182 0
-0.134134 0.0896287 0
-0.130214 0.0813532 0
-0.124509 0.073372 0
-0.118348 0.0655306 0
-0.111828 0.0579429 0
-0.105033 0.0506748 0
-0.0980189 0.0437684 0
-0.0908133 0.0372536 0
-0.0834233 0.0311533 0
-0.0758347 0.025487 0
-0.0680145 0.0202749 0
-0.0599114 0.0155407 0
-0.0514559 0.0113158 0
-0.0425594 0.0076439 0
-0.0331128 0.00458541 0
-0.0229834 0.00222196 0
-0.0120105 0.000656641 0
-0.132949 0.11956 0
-0.128418 0.109611 0
-0.125344 0.0999368 0
-0.121514 0.0906339 0
-0.116007 0.0816917 0
-0.110117 0.0729141 0
-0.103925 0.0644274 0
-0.0975014 0.0563049 0
-0.0908909 0.0485941 0
-0.0841154 0.0413284 0
-0.0771774 0.034533 0
-0.070062 0.0282294 0
-0.0627384 0.0224391 0
-0.0551613 0.0171873 0
-0.0472716 0.0125073 0
-0.0389961 0.00844514 0
-0.0302467 0.00506523 0
-0.0209186 0.0024551 0
-0.0108866 0.000726423 0
-0.123136 0.130212 0
-0.118654 0.119153 0
-0.115596 0.108477 0
-0.111869 0.0982571 0
-0.106601 0.0884742 0
-0.101027 0.0788885 0
-0.0952097 0.069635 0
-0.0892071 0.0607922 0
-0.0830529 0.0524109 0
-0.0767614 0.0445263 0
-0.0703306 0.0371648 0
-0.0637443 0.0303484 0
-0.0569741 0.0240986 0
-0.0499809 0.018441 0
-0.0427162 0.0134088 0
-0.0351229 0.00904862 0
-0.0271356 0.00542585 0
-0.0186796 0.00263064 0
-0.00966842 0.000779473 0
-0.112386 0.138641 0
-0.108034 0.126571 0
-0.105034 0.115011 0
-0.101426 0.104002 0
-0.0964378 0.0935232 0
-0.0912221 0.0832801 0
-0.0858272 0.0734127 0
-0.080295 0.0640034 0
-0.0746475 0.0551042 0
-0.0688907 0.0467501 0
-0.0630177 0.038967 0
-0.0570108 0.0317764 0
-0.0508439 0.025199 0
-0.0444841 0.0192591 0
-0.0378934 0.0139885 0
-0.0310311 0.00943202 0
-0.0238548 0.0056534 0
-0.0163216 0.00274161 0
-0.00838647 0.000813672 0
-0.100831 0.144593 0
-0.0967146 0.131627 0
-0.0938171 0.119325 0
-0.0903479 0.107683 0
-0.085681 0.0966581 0
-0.0808685 0.085924 0
-0.0759434 0.0756172 0
-0.0709293 0.0658164 0
-0.0658351 0.0565706 0
-0.0606584 0.047913 0
-0.0553875 0.0398678 0
-0.0500034 0.0324548 0
-0.0444817 0.0256929 0
-0.0387951 0.0196044 0
-0.0329161 0.0142182 0
-0.0268197 0.00957541 0
-0.0204865 0.00573519 0
-0.0139052 0.00278147 0
-0.00707426 0.000826963 0
-0.0886901 0.147642 0
-0.0849286 0.133987 0
-0.0821682 0.121154 0
-0.0788345 0.109071 0
-0.0745207 0.0976892 0
-0.0701587 0.0866637 0
-0.065749 0.0761196 0
-0.0612952 0.0661249 0
-0.0567939 0.0567231 0
-0.052235 0.047944 0
-0.0476023 0.0398094 0
-0.042875 0.0323368 0
-0.0380304 0.0255431 0
-0.0330464 0.0194476 0
-0.0279045 0.0140754 0
-0.0225944 0.00946232 0
-0.0171183 0.00566033 0
-0.0114957 0.00274435 0
-0.00576822 0.00081739 0
-0.0762267 0.147599 0
-0.0729486 0.133456 0
-0.0703235 0.120292 0
-0.0671126 0.107957 0
-0.06319 0.0964423 0
-0.0593194 0.0853652 0
-0.0554602 0.074815 0
-0.0515978 0.0648462 0
-0.0477184 0.0554964 0
-0.0438043 0.0467919 0
-0.0398347 0.0387519 0
-0.0357873 0.0313917 0
-0.0316404 0.0247256 0
-0.027376 0.0187699 0
-0.0229836 0.0135454 0
-0.0184653 0.0090814 0
-0.0138421 0.00542065 0
-0.00916185 0.00262536 0
-0.00450712 0.000783178 0
-0.0637794 0.144088 0
-0.0610334 0.129745 0
-0.0585013 0.116484 0
-0.0554352 0.104156 0
-0.0519599 0.0927948 0
-0.048605 0.0819386 0
-0.0453131 0.0716352 0
-0.0420583 0.0619289 0
-0.0388159 0.0528532 0
-0.0355602 0.0444312 0
-0.0322655 0.036679 0
-0.0289075 0.0296093 0
-0.0254655 0.0232342 0
-0.0219245 0.017567 0
-0.0182799 0.0126243 0
-0.0145432 0.00842873 0
-0.0107508 0.00501223 0
-0.00697393 0.0024214 0
-0.00333131 0.000722876 0
-0.0517074 0.136639 0
-0.0494367 0.122523 0
-0.0469626 0.109554 0
-0.0441245 0.097602 0
-0.0411228 0.0867101 0
-0.0382772 0.0763511 0
-0.0355514 0.0665535 0
-0.0329063 0.057357 0
-0.0303022 0.0487892 0
-0.0277035 0.0408672 0
-0.0250797 0.0336028 0
-0.022405 0.0270056 0
-0.0196595 0.0210855 0
-0.0168304 0.0158538 0
-0.013917 0.0113237 0
-0.0109367 0.00751124 0
-0.00793555 0.00443772 0
-0.00500156 0.0021322 0
-0.00228152 0.00063564 0
-0.040225 0.124883 0
-0.0384642 0.111639 0
-0.0360603 0.0995305 0
-0.0334616 0.0883633 0
-0.030921 0.0782048 0
-0.028578 0.0686013 0
-0.0264174 0.0595759 0
-0.0243766 0.0511505 0
-0.0223981 0.0433371 0
-0.0204378 0.036142 0
-0.0184623 0.0295703 0
-0.0164461 0.0236286 0
-0.0143706 0.0183253 0
-0.0122251 0.0136705 0
-0.0100102 0.00967543 0
-0.00774538 0.00635143 0
-0.00548014 0.00370986 0
-0.00330968 0.00176244 0
-0.00139684 0.00052179 0
-0.0295419 0.108731 0
-0.0284169 0.0970084 0
-0.0261308 0.0862809 0
-0.0236678 0.0763348 0
-0.0215694 0.0672245 0
-0.0197528 0.0586847 0
-0.0181644 0.0507361 0
-0.0167128 0.0433694 0
-0.0153291 0.0365733 0
-0.0139668 0.0303406 0
-0.0125944 0.0246701 0
-0.0111897 0.0195657 0
-0.00973679 0.0150354 0
-0.00822656 0.0110899 0
-0.00665977 0.00773987 0
-0.00505385 0.00499427 0
-0.00345439 0.00285718 0
-0.00195273 0.00132523 0
-0.000711524 0.000384054 0
-0.0198161 0.0882187 0
-0.0194106 0.0785634 0
-0.0173996 0.0695938 0
-0.0150542 0.0613012 0
-0.0133785 0.0536904 0
-0.0121086 0.0466275 0
-0.0110806 0.0401195 0
-0.010176 0.0341296 0
-0.00932639 0.0286284 0
-0.00849272 0.0236 0
-0.00765077 0.0190398 0
-0.00678408 0.0149513 0
-0.00588097 0.0113431 0
-0.00493433 0.00822719 0
-0.003944 0.00561563 0
-0.00292229 0.00351725 0
-0.0019045 0.00193283 0
-0.000965885 0.000849135 0
-0.00024755 0.00022919 0
-0.0114913 0.0634523 0
-0.0115933 0.0564622 0
-0.0100162 0.0495689 0
-0.00798111 0.0433064 0
-0.00676169 0.0376929 0
-0.00602317 0.0325788 0
-0.00549099 0.0279076 0
-0.00504223 0.0236248 0
-0.00462524 0.019699 0
-0.00421545 0.0161159 0
-0.00379894 0.012873 0
-0.0033663 0.00997454 0
-0.00291054 0.00743012 0
-0.00242689 0.00525218 0
-0.00191425 0.00345392 0
-0.00137872 0.00204558 0
-0.000841279 0.00102866 0
-0.000352321 0.000388362 0
-9.27334e-06 8.12973e-05 0
-0.00526877 0.0346734 0
-0.00512317 0.0308668 0
-0.00408741 0.0264341 0
-0.00281745 0.0226678 0
-0.0021728 0.0195844 0
-0.00189216 0.0168736 0
-0.00171986 0.0144043 0