<?xml version="1.0"?>
<VTKFile type="UnstructuredGrid">
  <UnstructuredGrid>
  <Piece NumberOfPoints="3321"  NumberOfCells="1600">
    <Points>
      <DataArray type="Float64" NumberOfComponents="3" format="ascii">
0 0 0.1
1 0 0.1
1 0.5 0.1
0 0.5 0.1
0.025 0 0.1
0.05 0 0.1
0.075 0 0.1
0.1 0 0.1
0.125 0 0.1
0.15 0 0.1
0.175 0 0.1
0.2 0 0.1
0.225 0 0.1
0.25 0 0.1
0.275 0 0.1
0.3 0 0.1
0.325 0 0.1
0.35 0 0.1
0.375 0 0.1
0.4 0 0.1
0.425 0 0.1
0.45 0 0.1
0.475 0 0.1
0.5 0 0.1
0.525 0 0.1
0.55 0 0.1
0.575 0 0.1
0.6 0 0.1
0.625 0 0.1
0.65 0 0.1
0.675 0 0.1
0.7 0 0.1
0.725 0 0.1
0.75 0 0.1
0.775 0 0.1
0.8 0 0.1
0.825 0 0.1
0.85 0 0.1
0.875 0 0.1
0.9 0 0.1
0.925 0 0.1
0.95 0 0.1
0.975 0 0.1
0.0125 0 0.1
0.0375 0 0.1
0.0625 0 0.1
0.0875 0 0.1
0.1125 0 0.1
0.1375 0 0.1
0.1625 0 0.1
0.1875 0 0.1
0.2125 0 0.1
0.2375 0 0.1
0.2625 0 0.1
0.2875 0 0.1
0.3125 0 0.1
0.3375 0 0.1
0.3625 0 0.1
0.3875 0 0.1
0.4125 0 0.1
0.4375 0 0.1
0.4625 0 0.1
0.4875 0 0.1
0.5125 0 0.1
0.5375 0 0.1
0.5625 0 0.1
0.5875 0 0.1
0.6125 0 0.1
0.6375 0 0.1
0.6625 0 0.1
0.6875 0 0.1
0.7125 0 0.1
0.7375 0 0.1
0.7625 0 0.1
0.7875 0 0.1
0.8125 0 0.1
0.8375 0 0.1
0.8625 0 0.1
0.8875 0 0.1
0.9125 0 0.1
0.9375 0 0.1
0.9625 0 0.1
0.9875 0 0.1
1 0.025 0.1
1 0.05 0.1
1 0.075 0.1
1 0.1 0.1
1 0.125 0.1
1 0.15 0.1
1 0.175 0.1
1 0.2 0.1
1 0.225 0.1
1 0.25 0.1
1 0.275 0.1
1 0.3 0.1
1 0.325 0.1
1 0.35 0.1
1 0.375 0.1
1 0.4 0.1
1 0.425 0.1
1 0.45 0.1
1 0.475 0.1
1 0.0125 0.1
1 0.0375 0.1
1 0.0625 0.1
1 0.0875 0.1
1 0.1125 0.1
1 0.1375 0.1
1 0.1625 0.1
1 0.1875 0.1
1 0.2125 0.1
1 0.2375 0.1
1 0.2625 0.1
1 0.2875 0.1
1 0.3125 0.1
1 0.3375 0.1
1 0.3625 0.1
1 0.3875 0.1
1 0.4125 0.1
1 0.4375 0.1
1 0.4625 0.1
1 0.4875 0.1
0.975 0.5 0.1
0.95 0.5 0.1
0.925 0.5 0.1
0.9 0.5 0.1
0.875 0.5 0.1
0.85 0.5 0.1
0.825 0.5 0.1
0.8 0.5 0.1
0.775 0.5 0.1
0.75 0.5 0.1
0.725 0.5 0.1
0.7 0.5 0.1
0.675 0.5 0.1
0.65 0.5 0.1
0.625 0.5 0.1
0.6 0.5 0.1
0.575 0.5 0.1
0.55 0.5 0.1
0.525 0.5 0.1
0.5 0.5 0.1
0.475 0.5 0.1
0.45 0.5 0.1
0.425 0.5 0.1
0.4 0.5 0.1
0.375 0.5 0.1
0.35 0.5 0.1
0.325 0.5 0.1
0.3 0.5 0.1
0.275 0.5 0.1
0.25 0.5 0.1
0.225 0.5 0.1
0.2 0.5 0.1
0.175 0.5 0.1
0.15 0.5 0.1
0.125 0.5 0.1
0.1 0.5 0.1
0.075 0.5 0.1
0.05 0.5 0.1
0.025 0.5 0.1
0.9875 0.5 0.1
0.9625 0.5 0.1
0.9375 0.5 0.1
0.9125 0.5 0.1
0.8875 0.5 0.1
0.8625 0.5 0.1
0.8375 0.5 0.1
0.8125 0.5 0.1
0.7875 0.5 0.1
0.7625 0.5 0.1
0.7375 0.5 0.1
0.7125 0.5 0.1
0.6875 0.5 0.1
0.6625 0.5 0.1
0.6375 0.5 0.1
0.6125 0.5 0.1
0.5875 0.5 0.1
0.5625 0.5 0.1
0.5375 0.5 0.1
0.5125 0.5 0.1
0.4875 0.5 0.1
0.4625 0.5 0.1
0.4375 0.5 0.1
0.4125 0.5 0.1
0.3875 0.5 0.1
0.3625 0.5 0.1
0.3375 0.5 0.1
0.3125 0.5 0.1
0.2875 0.5 0.1
0.2625 0.5 0.1
0.2375 0.5 0.1
0.2125 0.5 0.1
0.1875 0.5 0.1
0.1625 0.5 0.1
0.1375 0.5 0.1
0.1125 0.5 0.1
0.0875 0.5 0.1
0.0625 0.5 0.1
0.0375 0.5 0.1
0.0125 0.5 0.1
0 0.475 0.1
0 0.45 0.1
0 0.425 0.1
0 0.4 0.1
0 0.375 0.1
0 0.35 0.1
0 0.325 0.1
0 0.3 0.1
0 0.275 0.1
0 0.25 0.1
0 0.225 0.1
0 0.2 0.1
0 0.175 0.1
0 0.15 0.1
0 0.125 0.1
0 0.1 0.1
0 0.075 0.1
0 0.05 0.1
0 0.025 0.1
0 0.4875 0.1
0 0.4625 0.1
0 0.4375 0.1
0 0.4125 0.1
0 0.3875 0.1
0 0.3625 0.1
0 0.3375 0.1
0 0.3125 0.1
0 0.2875 0.1
0 0.2625 0.1
0 0.2375 0.1
0 0.2125 0.1
0 0.1875 0.1
0 0.1625 0.1
0 0.1375 0.1
0 0.1125 0.1
0 0.0875 0.1
0 0.0625 0.1
0 0.0375 0.1
0 0.0125 0.1
0.975 0.475 0.1
0.975 0.45 0.1
0.975 0.425 0.1
0.975 0.4 0.1
0.975 0.375 0.1
0.975 0.35 0.1
0.975 0.325 0.1
0.975 0.3 0.1
0.975 0.275 0.1
0.975 0.25 0.1
0.975 0.225 0.1
0.975 0.2 0.1
0.975 0.175 0.1
0.975 0.15 0.1
0.975 0.125 0.1
0.975 0.1 0.1
0.975 0.075 0.1
0.975 0.05 0.1
0.975 0.025 0.1
0.95 0.475 0.1
0.95 0.45 0.1
0.95 0.425 0.1
0.95 0.4 0.1
0.95 0.375 0.1
0.95 0.35 0.1
0.95 0.325 0.1
0.95 0.3 0.1
0.95 0.275 0.1
0.95 0.25 0.1
0.95 0.225 0.1
0.95 0.2 0.1
0.95 0.175 0.1
0.95 0.15 0.1
0.95 0.125 0.1
0.95 0.1 0.1
0.95 0.075 0.1
0.95 0.05 0.1
0.95 0.025 0.1
0.925 0.475 0.1
0.925 0.45 0.1
0.925 0.425 0.1
0.925 0.4 0.1
0.925 0.375 0.1
0.925 0.35 0.1
0.925 0.325 0.1
0.925 0.3 0.1
0.925 0.275 0.1
0.925 0.25 0.1
0.925 0.225 0.1
0.925 0.2 0.1
0.925 0.175 0.1
0.925 0.15 0.1
0.925 0.125 0.1
0.925 0.1 0.1
0.925 0.075 0.1
0.925 0.05 0.1
0.925 0.025 0.1
0.9 0.475 0.1
0.9 0.45 0.1
0.9 0.425 0.1
0.9 0.4 0.1
0.9 0.375 0.1
0.9 0.35 0.1
0.9 0.325 0.1
0.9 0.3 0.1
0.9 0.275 0.1
0.9 0.25 0.1
0.9 0.225 0.1
0.9 0.2 0.1
0.9 0.175 0.1
0.9 0.15 0.1
0.9 0.125 0.1
0.9 0.1 0.1
0.9 0.075 0.1
0.9 0.05 0.1
0.9 0.025 0.1
0.875 0.475 0.1
0.875 0.45 0.1
0.875 0.425 0.1
0.875 0.4 0.1
0.875 0.375 0.1
0.875 0.35 0.1
0.875 0.325 0.1
0.875 0.3 0.1
0.875 0.275 0.1
0.875 0.25 0.1
0.875 0.225 0.1
0.875 0.2 0.1
0.875 0.175 0.1
0.875 0.15 0.1
0.875 0.125 0.1
0.875 0.1 0.1
0.875 0.075 0.1
0.875 0.05 0.1
0.875 0.025 0.1
0.85 0.475 0.1
0.85 0.45 0.1
0.85 0.425 0.1
0.85 0.4 0.1
0.85 0.375 0.1
0.85 0.35 0.1
0.85 0.325 0.1
0.85 0.3 0.1
0.85 0.275 0.1
0.85 0.25 0.1
0.85 0.225 0.1
0.85 0.2 0.1
0.85 0.175 0.1
0.85 0.15 0.1
0.85 0.125 0.1
0.85 0.1 0.1
0.85 0.075 0.1
0.85 0.05 0.1
0.85 0.025 0.1
0.825 0.475 0.1
0.825 0.45 0.1
0.825 0.425 0.1
0.825 0.4 0.1
0.825 0.375 0.1
0.825 0.35 0.1
0.825 0.325 0.1
0.825 0.3 0.1
0.825 0.275 0.1
0.825 0.25 0.1
0.825 0.225 0.1
0.825 0.2 0.1
0.825 0.175 0.1
0.825 0.15 0.1
0.825 0.125 0.1
0.825 0.1 0.1
0.825 0.075 0.1
0.825 0.05 0.1
0.825 0.025 0.1
0.8 0.475 0.1
0.8 0.45 0.1
0.8 0.425 0.1
0.8 0.4 0.1
0.8 0.375 0.1
0.8 0.35 0.1
0.8 0.325 0.1
0.8 0.3 0.1
0.8 0.275 0.1
0.8 0.25 0.1
0.8 0.225 0.1
0.8 0.2 0.1
0.8 0.175 0.1
0.8 0.15 0.1
0.8 0.125 0.1
0.8 0.1 0.1
0.8 0.075 0.1
0.8 0.05 0.1
0.8 0.025 0.1
0.775 0.475 0.1
0.775 0.45 0.1
0.775 0.425 0.1
0.775 0.4 0.1
0.775 0.375 0.1
0.775 0.35 0.1
0.775 0.325 0.1
0.775 0.3 0.1
0.775 0.275 0.1
0.775 0.25 0.1
0.775 0.225 0.1
0.775 0.2 0.1
0.775 0.175 0.1
0.775 0.15 0.1
0.775 0.125 0.1
0.775 0.1 0.1
0.775 0.075 0.1
0.775 0.05 0.1
0.775 0.025 0.1
0.75 0.475 0.1
0.75 0.45 0.1
0.75 0.425 0.1
0.75 0.4 0.1
0.75 0.375 0.1
0.75 0.35 0.1
0.75 0.325 0.1
0.75 0.3 0.1
0.75 0.275 0.1
0.75 0.25 0.1
0.75 0.225 0.1
0.75 0.2 0.1
0.75 0.175 0.1
0.75 0.15 0.1
0.75 0.125 0.1
0.75 0.1 0.1
0.75 0.075 0.1
0.75 0.05 0.1
0.75 0.025 0.1
0.725 0.475 0.1
0.725 0.45 0.1
0.725 0.425 0.1
0.725 0.4 0.1
0.725 0.375 0.1
0.725 0.35 0.1
0.725 0.325 0.1
0.725 0.3 0.1
0.725 0.275 0.1
0.725 0.25 0.1
0.725 0.225 0.1
0.725 0.2 0.1
0.725 0.175 0.1
0.725 0.15 0.1
0.725 0.125 0.1
0.725 0.1 0.1
0.725 0.075 0.1
0.725 0.05 0.1
0.725 0.025 0.1
0.7 0.475 0.1
0.7 0.45 0.1
0.7 0.425 0.1
0.7 0.4 0.1
0.7 0.375 0.1
0.7 0.35 0.1
0.7 0.325 0.1
0.7 0.3 0.1
0.7 0.275 0.1
0.7 0.25 0.1
0.7 0.225 0.1
0.7 0.2 0.1
0.7 0.175 0.1
0.7 0.15 0.1
0.7 0.125 0.1
0.7 0.1 0.1
0.7 0.075 0.1
0.7 0.05 0.1
0.7 0.025 0.1
0.675 0.475 0.1
0.675 0.45 0.1
0.675 0.425 0.1
0.675 0.4 0.1
0.675 0.375 0.1
0.675 0.35 0.1
0.675 0.325 0.1
0.675 0.3 0.1
0.675 0.275 0.1
0.675 0.25 0.1
0.675 0.225 0.1
0.675 0.2 0.1
0.675 0.175 0.1
0.675 0.15 0.1
0.675 0.125 0.1
0.675 0.1 0.1
0.675 0.075 0.1
0.675 0.05 0.1
0.675 0.025 0.1
0.65 0.475 0.1
0.65 0.45 0.1
0.65 0.425 0.1
0.65 0.4 0.1
0.65 0.375 0.1
0.65 0.35 0.1
0.65 0.325 0.1
0.65 0.3 0.1
0.65 0.275 0.1
0.65 0.25 0.1
0.65 0.225 0.1
0.65 0.2 0.1
0.65 0.175 0.1
0.65 0.15 0.1
0.65 0.125 0.1
0.65 0.1 0.1
0.65 0.075 0.1
0.65 0.05 0.1
0.65 0.025 0.1
0.625 0.475 0.1
0.625 0.45 0.1
0.625 0.425 0.1
0.625 0.4 0.1
0.625 0.375 0.1
0.625 0.35 0.1
0.625 0.325 0.1
0.625 0.3 0.1
0.625 0.275 0.1
0.625 0.25 0.1
0.625 0.225 0.1
0.625 0.2 0.1
0.625 0.175 0.1
0.625 0.15 0.1
0.625 0.125 0.1
0.625 0.1 0.1
0.625 0.075 0.1
0.625 0.05 0.1
0.625 0.025 0.1
0.6 0.475 0.1
0.6 0.45 0.1
0.6 0.425 0.1
0.6 0.4 0.1
0.6 0.375 0.1
0.6 0.35 0.1
0.6 0.325 0.1
0.6 0.3 0.1
0.6 0.275 0.1
0.6 0.25 0.1
0.6 0.225 0.1
0.6 0.2 0.1
0.6 0.175 0.1
0.6 0.15 0.1
0.6 0.125 0.1
0.6 0.1 0.1
0.6 0.075 0.1
0.6 0.05 0.1
0.6 0.025 0.1
0.575 0.475 0.1
0.575 0.45 0.1
0.575 0.425 0.1
0.575 0.4 0.1
0.575 0.375 0.1
0.575 0.35 0.1
0.575 0.325 0.1
0.575 0.3 0.1
0.575 0.275 0.1
0.575 0.25 0.1
0.575 0.225 0.1
0.575 0.2 0.1
0.575 0.175 0.1
0.575 0.15 0.1
0.575 0.125 0.1
0.575 0.1 0.1
0.575 0.075 0.1
0.575 0.05 0.1
0.575 0.025 0.1
0.55 0.475 0.1
0.55 0.45 0.1
0.55 0.425 0.1
0.55 0.4 0.1
0.55 0.375 0.1
0.55 0.35 0.1
0.55 0.325 0.1
0.55 0.3 0.1
0.55 0.275 0.1
0.55 0.25 0.1
0.55 0.225 0.1
0.55 0.2 0.1
0.55 0.175 0.1
0.55 0.15 0.1
0.55 0.125 0.1
0.55 0.1 0.1
0.55 0.075 0.1
0.55 0.05 0.1
0.55 0.025 0.1
0.525 0.475 0.1
0.525 0.45 0.1
0.525 0.425 0.1
0.525 0.4 0.1
0.525 0.375 0.1
0.525 0.35 0.1
0.525 0.325 0.1
0.525 0.3 0.1
0.525 0.275 0.1
0.525 0.25 0.1
0.525 0.225 0.1
0.525 0.2 0.1
0.525 0.175 0.1
0.525 0.15 0.1
0.525 0.125 0.1
0.525 0.1 0.1
0.525 0.075 0.1
0.525 0.05 0.1
0.525 0.025 0.1
0.5 0.475 0.1
0.5 0.45 0.1
0.5 0.425 0.1
0.5 0.4 0.1
0.5 0.375 0.1
0.5 0.35 0.1
0.5 0.325 0.1
0.5 0.3 0.1
0.5 0.275 0.1
0.5 0.25 0.1
0.5 0.225 0.1
0.5 0.2 0.1
0.5 0.175 0.1
0.5 0.15 0.1
0.5 0.125 0.1
0.5 0.1 0.1
0.5 0.075 0.1
0.5 0.05 0.1
0.5 0.025 0.1
0.475 0.475 0.1
0.475 0.45 0.1
0.475 0.425 0.1
0.475 0.4 0.1
0.475 0.375 0.1
0.475 0.35 0.1
0.475 0.325 0.1
0.475 0.3 0.1
0.475 0.275 0.1
0.475 0.25 0.1
0.475 0.225 0.1
0.475 0.2 0.1
0.475 0.175 0.1
0.475 0.15 0.1
0.475 0.125 0.1
0.475 0.1 0.1
0.475 0.075 0.1
0.475 0.05 0.1
0.475 0.025 0.1
0.45 0.475 0.1
0.45 0.45 0.1
0.45 0.425 0.1
0.45 0.4 0.1
0.45 0.375 0.1
0.45 0.35 0.1
0.45 0.325 0.1
0.45 0.3 0.1
0.45 0.275 0.1
0.45 0.25 0.1
0.45 0.225 0.1
0.45 0.2 0.1
0.45 0.175 0.1
0.45 0.15 0.1
0.45 0.125 0.1
0.45 0.1 0.1
0.45 0.075 0.1
0.45 0.05 0.1
0.45 0.025 0.1
0.425 0.475 0.1
0.425 0.45 0.1
0.425 0.425 0.1
0.425 0.4 0.1
0.425 0.375 0.1
0.425 0.35 0.1
0.425 0.325 0.1
0.425 0.3 0.1
0.425 0.275 0.1
0.425 0.25 0.1
0.425 0.225 0.1
0.425 0.2 0.1
0.425 0.175 0.1
0.425 0.15 0.1
0.425 0.125 0.1
0.425 0.1 0.1
0.425 0.075 0.1
0.425 0.05 0.1
0.425 0.025 0.1
0.4 0.475 0.1
0.4 0.45 0.1
0.4 0.425 0.1
0.4 0.4 0.1
0.4 0.375 0.1
0.4 0.35 0.1
0.4 0.325 0.1
0.4 0.3 0.1
0.4 0.275 0.1
0.4 0.25 0.1
0.4 0.225 0.1
0.4 0.2 0.1
0.4 0.175 0.1
0.4 0.15 0.1
0.4 0.125 0.1
0.4 0.1 0.1
0.4 0.075 0.1
0.4 0.05 0.1
0.4 0.025 0.1
0.375 0.475 0.1
0.375 0.45 0.1
0.375 0.425 0.1
0.375 0.4 0.1
0.375 0.375 0.1
[...]
    <PointData>
      <DataArray type="Float64" NumberOfComponents="3" Name="Velocity" format="ascii">
0 0 0
0 0 0
0 0 0
0 0 0
0 0 0
0 0 0
0 0 0
0 0 0
0 0 0
0 0 0
0 0 0
0 0 0
0 0 0
0 0 0
0 0 0
0 0 0
0 0 0
0 0 0
0 0 0
0 0 0
0 0 0
0 0 0
0 0 0
0 0 0
0 0 0
0 0 0
0 0 0
0 0 0
0 0 0
0 0 0
0 0 0
0 0 0
0 0 0
0 0 0
0 0 0
0 0 0
0 0 0
0 0 0
0 0 0
0 0 0
0 0 0
0 0 0
0 0 0
0 0 0
0 0 0
0 0 0
0 0 0
0 0 0
0 0 0
0 0 0
0 0 0
0 0 0
0 0 0
0 0 0
0 0 0
0 0 0
0 0 0
0 0 0
0 0 0
0 0 0
0 0 0
0 0 0
0 0 0
0 0 0
0 0 0
0 0 0
0 0 0
0 0 0
0 0 0
0 0 0
0 0 0
0 0 0
0 0 0
0 0 0
0 0 0
0 0 0
0 0 0
0 0 0
0 0 0
0 0 0
0 0 0
0 0 0
0 0 0
0 0 0
0 0 0
0 0 0
0 0 0
0 0 0
0 0 0
0 0 0
0 0 0
0 0 0
0 0 0
0 0 0
0 0 0
0 0 0
0 0 0
0 0 0
0 0 0
0 0 0
0 0 0
0 0 0
0 0 0
0 0 0
0 0 0
0 0 0
0 0 0
0 0 0
0 0 0
0 0 0
0 0 0
0 0 0
0 0 0
0 0 0
0 0 0
0 0 0
0 0 0
0 0 0
0 0 0
0 0 0
0 0 0
0 0 0
-0.00283047 -0.0413627 0
-0.00992774 -0.0758385 0
-0.0203536 -0.104362 0
-0.0324465 -0.127508 0
-0.0462581 -0.145472 0
-0.0613703 -0.157864 0
-0.0764378 -0.165307 0
-0.0912842 -0.167935 0
-0.105584 -0.166176 0
-0.118739 -0.160867 0
-0.130671 -0.152045 0
-0.141201 -0.140386 0
-0.150198 -0.126213 0
-0.157856 -0.109926 0
-0.164118 -0.0923196 0
-0.168898 -0.0734741 0
-0.172337 -0.0538753 0
-0.174358 -0.0339111 0
-0.17507 -0.0137472 0
-0.174552 0.00615672 0
-0.172824 0.0257509 0
-0.169945 0.0449546 0
-0.165895 0.0633973 0
-0.160632 0.0810209 0
-0.154218 0.0975341 0
-0.14665 0.112668 0
-0.137985 0.126315 0
-0.128278 0.137955 0
-0.117483 0.147353 0
-0.105761 0.154213 0
-0.0933088 0.158064 0
-0.0801415 0.158817 0
-0.0666717 0.155866 0
-0.0533905 0.148685 0
-0.0407636 0.136565 0
-0.0288347 0.119051 0
-0.0181396 0.096391 0
-0.0091954 0.0685801 0
-0.0031263 0.0354846 0
-0.00124558 -0.0202441 0
-0.00590734 -0.0593751 0
-0.0149284 -0.090836 0
-0.0262558 -0.116654 0
-0.0392129 -0.137225 0
-0.053849 -0.15246 0
-0.0690082 -0.162346 0
-0.0839888 -0.16739 0
-0.0986351 -0.167739 0
-0.112383 -0.164175 0
-0.124926 -0.157045 0
-0.136173 -0.146713 0
-0.14593 -0.133777 0
-0.154235 -0.118443 0
-0.161213 -0.101439 0
-0.166721 -0.0831978 0
-0.170828 -0.0638866 0
-0.173561 -0.0440973 0
-0.174908 -0.0239614 0
-0.174986 -0.00383999 0
-0.173851 0.0159296 0
-0.171536 0.0353931 0
-0.168073 0.0542539 0
-0.163406 0.0723202 0
-0.157554 0.0894605 0
-0.150556 0.105305 0
-0.142419 0.119761 0
-0.133229 0.132458 0
-0.122968 0.143 0
-0.111674 0.151205 0
-0.0995884 0.156568 0
-0.0867564 0.15889 0
-0.0733772 0.15788 0
-0.0599597 0.152868 0
-0.0469814 0.143352 0
-0.0346492 0.128516 0
-0.0232722 0.108401 0
-0.013354 0.0831926 0
-0.0056899 0.0527903 0
-0.00289672 0.0166763 0
0 0 0
0 0 0
0 0 0
0 0 0
0 0 0
0 0 0
0 0 0
0 0 0
0 0 0
0 0 0
0 0 0
0 0 0
0 0 0
0 0 0
0 0 0
0 0 0
0 0 0
0 0 0
0 0 0
0 0 0
0 0 0
0 0 0
0 0 0
0 0 0
0 0 0
0 0 0
0 0 0
0 0 0
0 0 0
0 0 0
0 0 0
0 0 0
0 0 0
0 0 0
0 0 0
0 0 0
0 0 0
0 0 0
0 0 0
-0.00439104 -0.0353448 0
-0.00430674 -0.030414 0
-0.00371723 -0.0255419 0
-0.00246028 -0.0216279 0
-0.00184499 -0.0187841 0
-0.00159782 -0.0161907 0
-0.00144745 -0.0137767 0
-0.0013207 -0.0115473 0
-0.00120007 -0.00950508 0
-0.00108102 -0.0076503 0
-0.000961575 -0.00598291 0
-0.000840067 -0.00450451 0
-0.000714741 -0.00321929 0
-0.000584044 -0.00213427 0
-0.000447373 -0.00125899 0
-0.000306541 -0.000604442 0
-0.000166652 -0.00018107 0
-2.87135e-05 1.74492e-05 0
5.71513e-05 4.80554e-05 0
-0.0106481 -0.0651064 0
-0.0105315 -0.0564915 0
-0.0094966 -0.0489795 0
-0.00747784 -0.0424628 0
-0.00617345 -0.0368511 0
-0.00546899 -0.0316935 0
-0.00496057 -0.0269937 0
-0.00451815 -0.0227106 0
-0.00410186 -0.0188154 0
-0.00369693 -0.01529 0
-0.00329524 -0.0121245 0
-0.00289027 -0.00931559 0
-0.00247593 -0.00686567 0
-0.00204708 -0.00478201 0
-0.00160112 -0.00307518 0
-0.00114108 -0.00175605 0
-0.000680871 -0.000829074 0
-0.000258819 -0.000276176 0
2.76199e-05 -3.85846e-05 0
-0.0195773 -0.0905526 0
-0.0187741 -0.0792917 0
-0.0171735 -0.0695469 0
-0.0147581 -0.0609687 0
-0.0128673 -0.0531827 0
-0.0115211 -0.0458709 0
-0.0104419 -0.0391856 0
-0.00949165 -0.0331041 0
-0.0086077 -0.0275833 0
-0.00775837 -0.0225903 0
-0.00692412 -0.0181046 0
-0.00609004 -0.0141155 0
-0.00524353 -0.0106206 0
-0.00437473 -0.00762325 0
-0.00347903 -0.00513053 0
-0.00256242 -0.00314918 0
-0.00165139 -0.00167922 0
-0.000811608 -0.000703916 0
-0.00017817 -0.000178766 0
-0.0307424 -0.111439 0
-0.0290225 -0.0982908 0
-0.0267187 -0.0867673 0
-0.0238802 -0.0764962 0
-0.0214662 -0.0670989 0
-0.0193988 -0.0581685 0
-0.0176166 -0.0499159 0
-0.0160158 -0.0423648 0
-0.0145254 -0.0354886 0
-0.0130999 -0.029256 0
-0.0117078 -0.023643 0
-0.0103246 -0.0186345 0
-0.00893049 -0.0142232 0
-0.00751036 -0.0104081 0
-0.00605745 -0.00719226 0
-0.00457997 -0.00457948 0
-0.00311301 -0.00257033 0
-0.00173756 -0.0011568 0
-0.000609199 -0.000315933 0
-0.0435491 -0.127665 0
-0.04084 -0.113261 0
-0.037838 -0.100488 0
-0.0344678 -0.0889135 0
-0.0314439 -0.0783692 0
-0.0286514 -0.068292 0
-0.0261221 -0.0588859 0
-0.0237947 -0.0502124 0
-0.0216079 -0.0422716 0
-0.0195127 -0.0350447 0
-0.0174705 -0.0285117 0
-0.0154491 -0.0226571 0
-0.013422 -0.0174716 0
-0.0113689 -0.0129514 0
-0.00927971 -0.00909726 0
-0.00716208 -0.00591335 0
-0.00505299 -0.00340549 0
-0.00303643 -0.00158034 0
-0.00126737 -0.000444643 0
-0.0573639 -0.139276 0
-0.0536639 -0.124222 0
-0.0500449 -0.110735 0
-0.0461283 -0.0983508 0
-0.0423879 -0.0870105 0
-0.0388792 -0.0761386 0
-0.0355998 -0.0659331 0
-0.0325173 -0.0564639 0
-0.0295882 -0.0477472 0
-0.0267686 -0.0397767 0
-0.0240182 -0.0325395 0
-0.0213007 -0.0260231 0
-0.0185841 -0.0202187 0
-0.0158429 -0.0151224 0
-0.0130621 -0.0107357 0
-0.010245 -0.00706601 0
-0.00742312 -0.00412806 0
-0.00467107 -0.00194612 0
-0.00212489 -0.000556441 0
-0.0715761 -0.146444 0
-0.0669827 -0.131232 0
-0.0628194 -0.117494 0
-0.0584267 -0.10478 0
-0.0539727 -0.0930075 0
-0.049746 -0.0816667 0
-0.0457232 -0.07098 0
-0.0418842 -0.0610172 0
-0.0381998 -0.0518011 0
-0.034634 -0.0433343 0
-0.0311486 -0.0356109 0
-0.0277054 -0.0286231 0
-0.0242686 -0.022365 0
-0.0208073 -0.016835 0
-0.0173002 -0.0120376 0
-0.0137419 -0.00798607 0
-0.0101518 -0.00470568 0
-0.00658531 -0.0022383 0
-0.00314665 -0.000645879 0
-0.0856875 -0.14929 0
-0.0803336 -0.134372 0
-0.0757154 -0.120798 0
-0.0709254 -0.108148 0
-0.0658397 -0.0963314 0
-0.0609269 -0.0848652 0
-0.0561867 -0.0740047 0
-0.051612 -0.0638328 0
-0.0471852 -0.0543798 0
-0.0428785 -0.0456555 0
-0.0386572 -0.0376609 0
-0.0344832 -0.0303937 0
-0.0303179 -0.0238522 0
-0.0261249 -0.0180389 0
-0.0218749 -0.0129632 0
-0.0175505 -0.00864549 0
-0.0131535 -0.00512164 0
-0.00871289 -0.00244922 0
-0.00429311 -0.00071062 0
-0.0992583 -0.148286 0
-0.0933095 -0.134006 0
-0.0883632 -0.120918 0
-0.0832626 -0.108632 0
-0.0776417 -0.0970735 0
-0.0721102 -0.0857872 0
-0.0667034 -0.07504 0
-0.0614349 -0.0649251 0
-0.0563 -0.0554816 0
-0.0512792 -0.0467267 0
-0.0463428 -0.0386683 0
-0.0414535 -0.0313099 0
-0.0365706 -0.0246555 0
-0.031652 -0.0187124 0
-0.026659 -0.0134957 0
-0.0215598 -0.009033 0
-0.016335 -0.00536991 0
-0.0109827 -0.00257654 0
-0.00552281 -0.000750124 0
-0.111997 -0.1439 0
-0.10563 -0.130471 0
-0.10049 -0.118105 0
-0.0951716 -0.106425 0
-0.0890918 -0.0953869 0
-0.0830154 -0.0845491 0
-0.0770096 -0.0741725 0
-0.071107 -0.0643567 0
-0.0653157 -0.055149 0
-0.0596255 -0.0465746 0
-0.0540118 -0.0386481 0
-0.0484396 -0.0313794 0
-0.0428659 -0.0247779 0
-0.0372432 -0.0188563 0
-0.0315225 -0.0136356 0
-0.0256562 -0.00914966 0
-0.0196013 -0.00545198 0
-0.0133227 -0.00262156 0
-0.0067944 -0.000764928 0
-0.12369 -0.136369 0
-0.117065 -0.123999 0
-0.111851 -0.112575 0
-0.10639 -0.101749 0
-0.0999274 -0.0914771 0
-0.0933943 -0.0813194 0
-0.0868709 -0.0715348 0
-0.0804068 -0.0622305 0
-0.0740239 -0.0534613 0
-0.0677219 -0.0452592 0
-0.0614823 -0.0376455 0
-0.0552726 -0.0306356 0
-0.0490484 -0.0242443 0
-0.0427567 -0.0184894 0
-0.0363377 -0.0133968 0
-0.0297272 -0.00900572 0
-0.0228584 -0.00537478 0
-0.0156625 -0.0025881 0
-0.00806804 -0.00075629 0
-0.134164 -0.126266 0
-0.127438 -0.115073 0
-0.122241 -0.104741 0
-0.116698 -0.0949443 0
-0.109943 -0.0856048 0
-0.103044 -0.0763034 0
-0.0960878 -0.0672925 0
-0.089141 -0.0586803 0
-0.0822389 -0.050526 0
-0.0753915 -0.0428668 0
-0.068587 -0.0357288 0
-0.0617956 -0.0291324 0
-0.0549719 -0.0230967 0
-0.0480576 -0.0176439 0
-0.0409823 -0.0128036 0
-0.0336658 -0.00861823 0
-0.0260173 -0.00514919 0
-0.0179356 -0.0024818 0
-0.00930644 -0.000725966 0
-0.143271 -0.113886 0
-0.136616 -0.104058 0
-0.13152 -0.0949414 0
-0.125947 -0.0862967 0
-0.118987 -0.0780223 0
-0.111802 -0.0697192 0
-0.104495 -0.0616294 0
-0.0971447 -0.0538597 0
-0.089799 -0.0464706 0
-0.0824776 -0.0395022 0
-0.0751755 -0.0329837 0
-0.0678657 -0.0269389 0
-0.0605021 -0.0213901 0
-0.0530213 -0.0163623 0
-0.0453434 -0.0118874 0
-0.0373723 -0.00800923 0
-0.0289953 -0.00478896 0
-0.0200809 -0.0023096 0
-0.0104756 -0.000676068 0
-0.150935 -0.0995332 0
-0.14445 -0.0912191 0
-0.139567 -0.0834713 0
-0.134017 -0.0760867 0
-0.126929 -0.0689813 0
-0.119538 -0.0617885 0
-0.111957 -0.0547382 0
-0.10428 -0.047934 0
-0.0965662 -0.0414357 0
-0.0888446 -0.0352835 0
-0.0811159 -0.0295081 0
-0.0733562 -0.024135 0
-0.065519 -0.0191882 0
-0.0575361 -0.0146941 0
-0.0493188 -0.0106851 0
-0.0407572 -0.00720426 0
-0.0317183 -0.00430984 0
-0.0220438 -0.00207932 0
-0.0115451 -0.000608952 0
-0.157183 -0.083788 0
-0.1509 -0.0770122 0
-0.146292 -0.070688 0
-0.140829 -0.0646165 0
-0.133681 -0.0587367 0
-0.12615 -0.0527333 0
-0.118365 -0.0468143 0
-0.110434 -0.0410742 0
-0.102426 -0.0355688 0
-0.0943777 -0.0303367 0
-0.0862955 -0.0254079 0
-0.0781579 -0.020808 0
-0.0699181 -0.0165613 0
-0.061504 -0.012694 0
-0.0528193 -0.00923718 0
-0.0437418 -0.00623115 0
-0.0341215 -0.00372888 0
-0.0237765 -0.00179937 0
-0.012489 -0.00052713 0
-0.162056 -0.0668934 0
-0.155987 -0.061704 0
-0.151663 -0.0568396 0
-0.146344 -0.0521232 0
-0.139179 -0.0475209 0
-0.131561 -0.0427695 0
-0.123634 -0.0380525 0
-0.115516 -0.0334533 0
-0.107285 -0.0290215 0
-0.098983 -0.0247922 0
-0.0906209 -0.0207934 0
-0.0821795 -0.0170493 0
-0.0736117 -0.0135832 0
-0.0648426 -0.0104193 0
-0.0557694 -0.00758617 0
-0.04626 -0.00511916 0
-0.0361501 -0.00306387 0
-0.0252392 -0.0014785 0
-0.0132853 -0.000433194 0
-0.165606 -0.0492082 0
-0.15975 -0.0456088 0
-0.155676 -0.0421888 0
-0.150515 -0.0388479 0
-0.143368 -0.0355618 0
-0.135711 -0.0321087 0
-0.127699 -0.0286457 0
-0.119458 -0.0252438 0
-0.111071 -0.0219456 0
-0.102587 -0.0187817 0
-0.094018 -0.0157768 0
-0.085348 -0.0129525 0
-0.0765293 -0.0103295 0
-0.0674851 -0.00792918 0
-0.0581078 -0.00577568 0
-0.0482578 -0.00389814 0
-0.03776 -0.00233296 0
-0.0263996 -0.00112556 0
-0.0139165 -0.000329761 0
-0.167879 -0.0310878 0
-0.162237 -0.0290263 0
-0.158355 -0.0270239 0
-0.153324 -0.0250513 0
-0.146216 -0.0230916 0
-0.138561 -0.0209615 0
-0.130515 -0.0187843 0
-0.12221 -0.0166166 0
-0.113733 -0.0144925 0
-0.105135 -0.012437 0
-0.0964318 -0.0104706 0
-0.0876085 -0.00861129 0
-0.0786177 -0.00687628 0
-0.0693811 -0.00528279 0
-0.0597883 -0.00384953 0
-0.0496946 -0.00259807 0
-0.0389179 -0.00155428 0
-0.0272336 -0.000749374 0
-0.0143695 -0.000219426 0
-0.168897 -0.0127042 0
-0.163443 -0.0121417 0
-0.159687 -0.0115557 0
-0.154757 -0.0109588 0
-0.147707 -0.010332 0
-0.140088 -0.00953256 0
-0.132057 -0.00865448 0
-0.123743 -0.0077389 0
-0.115237 -0.00681059 0
-0.106592 -0.00588784 0
-0.0978261 -0.00498602 0
-0.0889245 -0.00411884 0
-0.0798407 -0.00329909 0
-0.0704962 -0.00253907 0
-0.0607791 -0.00185121 0
-0.0505427 -0.00124863 0
-0.039601 -0.000745742 0
-0.0277248 -0.000358644 0
-0.0146355 -0.000104739 0
-0.168647 0.00562148 0
-0.16333 0.00475303 0
-0.159661 0.00394437 0
-0.154816 0.00319028 0
-0.147842 0.00250408 0
-0.140292 0.00198218 0
-0.132315 0.00156432 0
-0.124044 0.0012267 0
-0.115569 0.000955114 0
-0.106942 0.000738664 0
-0.0981826 0.000567695 0
-0.0892771 0.000433386 0
-0.0801796 0.000327802 0
-0.0708121 0.000244061 0
-0.0610635 0.000176529 0
-0.0507871 0.000121033 0
-0.0397973 7.50847e-05 0
-0.0278646 3.81369e-05 0
-0.0147101 1.18187e-05 0
-0.167118 0.0236978 0
-0.161886 0.0214484 0
-0.158285 0.0192806 0
-0.153522 0.0172018 0
-0.146639 0.0152228 0
-0.139183 0.0133976 0
-0.1313 0.0116997 0
-0.12312 0.0101229 0
-0.114731 0.00866362 0
-0.106186 0.00731857 0
-0.0975013 0.00608392 0
-0.0886652 0.00495594 0
-0.0796323 0.00393171 0
-0.0703265 0.00300993 0
-0.0606389 0.0021919 0
-0.0504258 0.00148247 0
-0.0395051 0.000891091 0
-0.0276519 0.000432709 0
-0.0145927 0.000127843 0
-0.164296 0.0413872 0
-0.159114 0.0377809 0
-0.155579 0.034277 0
-0.15089 0.030892 0
-0.144116 0.0276376 0
-0.136782 0.0245338 0
-0.129033 0.0215838 0
-0.120992 0.0187964 0
-0.112745 0.0161776 0
-0.104342 0.0137311 0
-0.0957995 0.0114587 0
-0.0871044 0.00936162 0
-0.0782134 0.00744177 0
-0.0690526 0.00570331 0
-0.0595172 0.00415419 0
-0.0494689 0.00280798 0
-0.0387329 0.00168564 0
-0.0270931 0.000817054 0
-0.014287 0.000241002 0
-0.160229 0.0583743 0
-0.155079 0.0534799 0
-0.151572 0.0486923 0
-0.14695 0.0440388 0
-0.140305 0.0395503 0
-0.133125 0.0352097 0
-0.12555 0.0310509 0
-0.117697 0.027097 0
-0.109647 0.0233628 0
-0.101447 0.0198584 0
-0.0931113 0.0165907 0
-0.0846275 0.0135655 0
-0.0759534 0.010789 0
-0.0670187 0.00827044 0
-0.057724 0.00602379 0
-0.047939 0.00407064 0
-0.0374991 0.00244257 0
-0.0262016 0.00118339 0
-0.0138003 0.000349037 0
-0.154961 0.0745295 0
-0.149834 0.0683572 0
-0.146312 0.0623126 0
-0.141752 0.056433 0
-0.135256 0.0507631 0
-0.128264 0.0452445 0
-0.120904 0.0399369 0
-0.113288 0.034877 0
-0.10549 0.0300879 0
-0.0975521 0.0255855 0
-0.0894878 0.0213814 0
-0.0812834 0.017485 0
-0.0728988 0.0139065 0
-0.064268 0.0106591 0
-0.0552985 0.00776225 0
-0.0458701 0.00524427 0
-0.0358318 0.00314616 0
-0.024998 0.00152415 0
-0.0131439 0.00044975 0
-0.148508 0.0895955 0
-0.143402 0.082161 0
-0.139846 0.0748944 0
-0.135359 0.0678582 0
-0.129037 0.0610816 0
-0.122267 0.0544603 0
-0.115165 0.0480804 0
-0.107835 0.0419914 0
-0.100343 0.0362244 0
-0.0927268 0.0308004 0
-0.0849961 0.0257347 0
-0.0771369 0.0210399 0
-0.0691111 0.0167291 0
-0.0608578 0.0128188 0
-0.0522929 0.00933222 0
-0.043308 0.00630346 0
-0.0337684 0.00378112 0
-0.0235095 0.00183194 0
-0.0123327 0.000540993 0
-0.140919 0.103321 0
-0.13583 0.0946657 0
-0.132254 0.0862358 0
-0.127861 0.0781188 0
-0.121733 0.0703186 0
-0.115218 0.0626835 0
-0.108419 0.055323 0
-0.101424 0.0482982 0
-0.0942931 0.0416469 0
-0.0870557 0.035394 0
-0.0797191 0.0295577 0
-0.0722679 0.0241528 0
-0.0646665 0.0191942 0
-0.0568594 0.0147004 0
-0.0487718 0.0106976 0
-0.0403091 0.00722355 0
-0.0313552 0.00433258 0
-0.0217699 0.00209958 0
-0.0113851 0.000620659 0
-0.132225 0.115552 0
-0.127174 0.105698 0
-0.123608 0.0961636 0
-0.119333 0.0870328 0
-0.113434 0.0782902 0
-0.107216 0.0697421 0
-0.100766 0.0615092 0
-0.0941583 0.0536591 0
-0.0874417 0.0462338 0
-0.0806398 0.0392612 0
-0.0737551 0.0327611 0
-0.0667713 0.0267493 0
-0.0596551 0.0212415 0
-0.0523568 0.0162572 0
-0.0448118 0.0118237 0
-0.0369404 0.00798078 0
-0.0286472 0.0047861 0
-0.0198192 0.00232002 0
-0.0103231 0.000686672 0
-0.12249 0.125881 0
-0.117526 0.114926 0
-0.114016 0.1044 0
-0.109877 0.0943656 0
-0.104251 0.0848005 0
-0.0983777 0.0754646 0
-0.0923256 0.0664868 0
-0.0861566 0.0579398 0
-0.0799079 0.0498685 0
-0.0735955 0.0423019 0
-0.0672174 0.0352603 0
-0.060756 0.0287593 0
-0.0541801 0.0228146 0
-0.0474463 0.017445 0
-0.0405004 0.0126777 0
-0.0332786 0.00855242 0
-0.0257076 0.00512779 0
-0.0177038 0.00248642 0
-0.00917177 0.000736985 0
-0.111819 0.134089 0
-0.107026 0.122126 0
-0.103614 0.110722 0
-0.0996365 0.0999108 0
-0.0943275 0.0896633 0
-0.0888433 0.0796849 0
-0.0832379 0.0701094 0
-0.0775577 0.061013 0
-0.0718277 0.0524413 0
-0.0660554 0.044423 0
-0.0602339 0.0369771 0
-0.0543441 0.0301185 0
-0.048357 0.0238613 0
-0.0422352 0.0182231 0
-0.0359352 0.0132291 0
-0.0294093 0.00891728 0
-0.0226069 0.00534447 0
-0.0154754 0.00259216 0
-0.00795981 0.000769587 0
-0.100336 0.139919 0
-0.0958235 0.127063 0
-0.0925611 0.114924 0
-0.0887691 0.103489 0
-0.0838208 0.0927044 0
-0.078772 0.0822439 0
-0.073662 0.0722385 0
-0.068519 0.0627606 0
-0.0633544 0.0538527 0
-0.0581674 0.0455411 0
-0.0529461 0.0378428 0
-0.0476701 0.0307706 0
-0.0423121 0.0243365 0
-0.0368407 0.0185559 0
-0.0312226 0.013451 0
-0.0254259 0.00905629 0
-0.0194224 0.00542402 0
-0.0131909 0.00263101 0
-0.00671873 0.000782514 0
-0.0882571 0.142952 0
-0.0841464 0.129412 0
-0.0810747 0.116746 0
-0.0774697 0.104876 0
-0.0729146 0.0937376 0
-0.0683495 0.082988 0
-0.0637815 0.0727475 0
-0.0592182 0.0630785 0
-0.0546588 0.0540175 0
-0.0500944 0.0455868 0
-0.0455085 0.0378009 0
-0.0408792 0.0306701 0
-0.0361811 0.024204 0
-0.031388 0.0184151 0
-0.0264761 0.0133218 0
-0.0214278 0.0089536 0
-0.0162367 0.00535597 0
-0.010912 0.00259731 0
-0.00548284 0.000773897 0
-0.0758434 0.143001 0
-0.0722647 0.128978 0
-0.0693876 0.115985 0
-0.0659583 0.103864 0
-0.0618349 0.0925891 0
-0.0577956 0.0817831 0
-0.0538055 0.0715322 0
-0.0498535 0.0618847 0
-0.0459278 0.0528708 0
-0.0420122 0.0445095 0
-0.0380858 0.0368121 0
-0.0341252 0.0297865 0
-0.0301065 0.0234401 0
-0.0260078 0.0177821 0
-0.0218136 0.012827 0
-0.017519 0.00859811 0
-0.0131365 0.00513238 0
-0.00870321 0.00248638 0
-0.0042887 0.000742025 0
-0.0634318 0.139687 0
-0.0604408 0.125469 0
-0.0577174 0.112382 0
-0.0544817 0.100263 0
-0.0508466 0.0891316 0
-0.0473586 0.0785369 0
-0.0439636 0.0685225 0
-0.0406386 0.0591264 0
-0.0373612 0.0503745 0
-0.0341071 0.0422825 0
-0.030851 0.0348589 0
-0.0275677 0.0281089 0
-0.0242346 0.0220377 0
-0.0208334 0.0166519 0
-0.0173549 0.0119622 0
-0.0138044 0.00798567 0
-0.0102096 0.0047493 0
-0.00663116 0.00229512 0
-0.00317443 0.000685495 0
-0.0513872 0.132563 0
-0.0489302 0.118556 0
-0.0463229 0.105748 0
-0.0433601 0.0939934 0
-0.0402401 0.0833224 0
-0.0372964 0.0732128 0
-0.0344939 0.0636891 0
-0.0317965 0.0547852 0
-0.0291673 0.0465217 0
-0.0265722 0.0389088 0
-0.0239811 0.031951 0
-0.0213682 0.0256508 0
-0.0187117 0.0200114 0
-0.0159964 0.0150379 0
-0.0132174 0.0107377 0
-0.0103865 0.00712234 0
-0.00754206 0.0042089 0
-0.00476165 0.00202316 0
-0.00217857 0.000603465 0
-0.0399351 0.12125 0
-0.0380308 0.108085 0
-0.035552 0.0961118 0
-0.0328805 0.085128 0
-0.0302588 0.0751794 0
-0.0278475 0.0658085 0
-0.0256327 0.0570354 0
-0.0235549 0.0488776 0
-0.0215593 0.0413413 0
-0.0196031 0.0344263 0
-0.0176538 0.0281313 0
-0.0156858 0.0224562 0
-0.0136795 0.0174032 0
-0.0116219 0.0129768 0
-0.00951054 0.00918289 0
-0.00736023 0.00602884 0
-0.00521355 0.00352288 0
-0.00315626 0.00167472 0
-0.00133818 0.000496183 0
-0.0292988 0.105631 0
-0.0280583 0.0939737 0
-0.0257448 0.0833648 0
-0.0232594 0.0735779 0
-0.0211113 0.0646531 0
-0.0192503 0.0563187 0
-0.017626 0.0485918 0
-0.0161498 0.0414589 0
-0.0147548 0.0349039 0
-0.013396 0.0289141 0
-0.0120427 0.0234823 0
-0.0106726 0.0186067 0
-0.00926936 0.0142897 0
-0.00782231 0.0105367 0
-0.0063299 0.00735399 0
-0.0048059 0.00474707 0
-0.00329045 0.00271777 0
-0.00186679 0.00126196 0
-0.000685828 0.000366138 0
-0.0196355 0.0857448 0
-0.0191407 0.0761476 0
-0.0171302 0.0672847 0
-0.0147952 0.0591218 0
-0.0130961 0.0516603 0
-0.0118019 0.0447644 0
-0.0107529 0.0384373 0
-0.00983322 0.0326379 0
-0.00897664 0.0273326 0
-0.00814517 0.0225009 0
-0.00731523 0.0181334 0
-0.0064705 0.0142285 0
-0.005599 0.0107901 0
-0.00469279 0.00782559 0
-0.00375022 0.00534343 0
-0.00278118 0.00334959 0
-0.00181707 0.00184332 0
-0.000927024 0.000811551 0
-0.000242721 0.000219731 0
-0.011367 0.0617027 0
-0.0114146 0.0547567 0
-0.00985251 0.0479507 0
-0.00784072 0.0417843 0
-0.00661759 0.0362787 0
-0.00587053 0.0312852 0
-0.00532876 0.0267443 0
-0.00487245 0.0225988 0
-0.00445165 0.018814 0
-0.00404269 0.0153724 0
-0.00363208 0.0122674 0
-0.00321058 0.00949983 0
-0.00277109 0.00707541 0
-0.00230851 0.00500316 0
-0.00182099 0.00329335 0
-0.00131339 0.00195406 0
-0.000804446 0.000985824 0
-0.000340601 0.000374396 0
-1.33334e-05 7.91513e-05 0
-0.00518733 0.0337383 0
-0.00503058 0.0299514 0
-0.00401346 0.0255773 0
-0.00276312 0.0218694 0
-0.00212473 0.0188488 0
-0.0018441 0.0162045 0