<?xml version="1.0"?>
<VTKFile type="UnstructuredGrid">
  <UnstructuredGrid>
  <Piece NumberOfPoints="231"  NumberOfCells="100">
    <Points>
      <DataArray type="Float64" NumberOfComponents="3" format="ascii">
0 0 0.1
1 0 0.1
1 0.5 0.1
0 0.5 0.1
0.1 0 0.1
0.2 0 0.1
0.3 0 0.1
0.4 0 0.1
0.5 0 0.1
0.6 0 0.1
0.7 0 0.1
0.8 0 0.1
0.9 0 0.1
0.05 0 0.1
0.15 0 0.1
0.25 0 0.1
0.35 0 0.1
0.45 0 0.1
0.55 0 0.1
0.65 0 0.1
0.75 0 0.1
0.85 0 0.1
0.95 0 0.1
1 0.1 0.1
1 0.2 0.1
1 0.3 0.1
1 0.4 0.1
1 0.05 0.1
1 0.15 0.1
1 0.25 0.1
1 0.35 0.1
1 0.45 0.1
0.9 0.5 0.1
0.8 0.5 0.1
0.7 0.5 0.1
0.6 0.5 0.1
0.5 0.5 0.1
0.4 0.5 0.1
0.3 0.5 0.1
0.2 0.5 0.1
0.1 0.5 0.1
0.95 0.5 0.1
0.85 0.5 0.1
0.75 0.5 0.1
0.65 0.5 0.1
0.55 0.5 0.1
0.45 0.5 0.1
0.35 0.5 0.1
0.25 0.5 0.1
0.15 0.5 0.1
0.05 0.5 0.1
0 0.4 0.1
0 0.3 0.1
0 0.2 0.1
0 0.1 0.1
0 0.45 0.1
0 0.35 0.1
0 0.25 0.1
0 0.15 0.1
0 0.05 0.1
0.1 0.1 0.1
0.1 0.2 0.1
0.1 0.3 0.1
0.1 0.4 0.1
0.2 0.1 0.1
0.2 0.2 0.1
0.2 0.3 0.1
0.2 0.4 0.1
0.3 0.1 0.1
0.3 0.2 0.1
0.3 0.3 0.1
0.3 0.4 0.1
0.4 0.1 0.1
0.4 0.2 0.1
0.4 0.3 0.1
0.4 0.4 0.1
0.5 0.1 0.1
0.5 0.2 0.1
0.5 0.3 0.1
0.5 0.4 0.1
0.6 0.1 0.1
0.6 0.2 0.1
0.6 0.3 0.1
0.6 0.4 0.1
0.7 0.1 0.1
0.7 0.2 0.1
0.7 0.3 0.1
0.7 0.4 0.1
0.8 0.1 0.1
0.8 0.2 0.1
0.8 0.3 0.1
0.8 0.4 0.1
0.9 0.1 0.1
0.9 0.2 0.1
0.9 0.3 0.1
0.9 0.4 0.1
0.1 0.05 0.1
0.05 0.05 0.1
0.05 0.1 0.1
0.1 0.15 0.1
0.05 0.15 0.1
0.05 0.2 0.1
0.1 0.25 0.1
0.05 0.25 0.1
0.05 0.3 0.1
0.1 0.35 0.1
0.05 0.35 0.1
0.05 0.4 0.1
0.1 0.45 0.1
0.05 0.45 0.1
0.2 0.05 0.1
0.15 0.05 0.1
0.15 0.1 0.1
0.2 0.15 0.1
0.15 0.15 0.1
0.15 0.2 0.1
0.2 0.25 0.1
0.15 0.25 0.1
0.15 0.3 0.1
0.2 0.35 0.1
0.15 0.35 0.1
0.15 0.4 0.1
0.2 0.45 0.1
0.15 0.45 0.1
0.3 0.05 0.1
0.25 0.05 0.1
0.25 0.1 0.1
0.3 0.15 0.1
0.25 0.15 0.1
0.25 0.2 0.1
0.3 0.25 0.1
0.25 0.25 0.1
0.25 0.3 0.1
0.3 0.35 0.1
0.25 0.35 0.1
0.25 0.4 0.1
0.3 0.45 0.1
0.25 0.45 0.1
0.4 0.05 0.1
0.35 0.05 0.1
0.35 0.1 0.1
0.4 0.15 0.1
0.35 0.15 0.1
0.35 0.2 0.1
0.4 0.25 0.1
0.35 0.25 0.1
0.35 0.3 0.1
0.4 0.35 0.1
0.35 0.35 0.1
0.35 0.4 0.1
0.4 0.45 0.1
0.35 0.45 0.1
0.5 0.05 0.1
0.45 0.05 0.1
0.45 0.1 0.1
0.5 0.15 0.1
0.45 0.15 0.1
0.45 0.2 0.1
0.5 0.25 0.1
0.45 0.25 0.1
0.45 0.3 0.1
0.5 0.35 0.1
0.45 0.35 0.1
0.45 0.4 0.1
0.5 0.45 0.1
0.45 0.45 0.1
0.6 0.05 0.1
0.55 0.05 0.1
0.55 0.1 0.1
0.6 0.15 0.1
0.55 0.15 0.1
0.55 0.2 0.1
0.6 0.25 0.1
0.55 0.25 0.1
0.55 0.3 0.1
0.6 0.35 0.1
0.55 0.35 0.1
0.55 0.4 0.1
0.6 0.45 0.1
0.55 0.45 0.1
0.7 0.05 0.1
0.65 0.05 0.1
0.65 0.1 0.1
0.7 0.15 0.1
0.65 0.15 0.1
0.65 0.2 0.1
0.7 0.25 0.1
0.65 0.25 0.1
0.65 0.3 0.1
0.7 0.35 0.1
0.65 0.35 0.1
0.65 0.4 0.1
0.7 0.45 0.1
0.65 0.45 0.1
0.8 0.05 0.1
0.75 0.05 0.1
0.75 0.1 0.1
0.8 0.15 0.1
0.75 0.15 0.1
0.75 0.2 0.1
0.8 0.25 0.1
0.75 0.25 0.1
0.75 0.3 0.1
0.8 0.35 0.1
0.75 0.35 0.1
0.75 0.4 0.1
0.8 0.45 0.1
0.75 0.45 0.1
0.9 0.05 0.1
0.85 0.05 0.1
0.85 0.1 0.1
0.9 0.15 0.1
0.85 0.15 0.1
0.85 0.2 0.1
0.9 0.25 0.1
0.85 0.25 0.1
0.85 0.3 0.1
0.9 0.35 0.1
0.85 0.35 0.1
0.85 0.4 0.1
0.9 0.45 0.1
0.85 0.45 0.1
0.95 0.05 0.1
0.95 0.1 0.1
0.95 0.15 0.1
0.95 0.2 0.1
0.95 0.25 0.1
0.95 0.3 0.1
0.95 0.35 0.1
0.95 0.4 0.1
0.95 0.45 0.1
      </DataArray>
    </Points>
    <Cells>
      <DataArray type="Int32" Name="connectivity" format="ascii">
0 4 60 13 96 97
60 54 0 98 59 97
54 60 61 98 99 100
61 53 54 101 58 100
53 61 62 101 102 103
62 52 53 104 57 103
52 62 63 104 105 106
63 51 52 107 56 106
51 63 40 107 108 109
40 3 51 50 55 109
4 5 64 14 110 111
64 60 4 112 96 111
60 64 65 112 113 114
65 61 60 115 99 114
61 65 66 115 116 117
66 62 61 118 102 117
62 66 67 118 119 120
67 63 62 121 105 120
63 67 39 121 122 123
39 40 63 49 108 123
5 6 68 15 124 125
68 64 5 126 110 125
64 68 69 126 127 128
69 65 64 129 113 128
65 69 70 129 130 131
70 66 65 132 116 131
66 70 71 132 133 134
71 67 66 135 119 134
67 71 38 135 136 137
38 39 67 48 122 137
6 7 72 16 138 139
72 68 6 140 124 139
68 72 73 140 141 142
73 69 68 143 127 142
69 73 74 143 144 145
74 70 69 146 130 145
70 74 75 146 147 148
75 71 70 149 133 148
71 75 37 149 150 151
37 38 71 47 136 151
7 8 76 17 152 153
76 72 7 154 138 153
72 76 77 154 155 156
77 73 72 157 141 156
73 77 78 157 158 159
78 74 73 160 144 159
74 78 79 160 161 162
79 75 74 163 147 162
75 79 36 163 164 165
36 37 75 46 150 165
8 9 80 18 166 167
80 76 8 168 152 167
76 80 81 168 169 170
81 77 76 171 155 170
77 81 82 171 172 173
82 78 77 174 158 173
78 82 83 174 175 176
83 79 78 177 161 176
79 83 35 177 178 179
35 36 79 45 164 179
9 10 84 19 180 181
84 80 9 182 166 181
80 84 85 182 183 184
85 81 80 185 169 184
81 85 86 185 186 187
86 82 81 188 172 187
82 86 87 188 189 190
87 83 82 191 175 190
83 87 34 191 192 193
34 35 83 44 178 193
10 11 88 20 194 195
88 84 10 196 180 195
84 88 89 196 197 198
89 85 84 199 183 198
85 89 90 199 200 201
90 86 85 202 186 201
86 90 91 202 203 204
91 87 86 205 189 204
87 91 33 205 206 207
33 34 87 43 192 207
11 12 92 21 208 209
92 88 11 210 194 209
88 92 93 210 211 212
93 89 88 213 197 212
89 93 94 213 214 215
94 90 89 216 200 215
90 94 95 216 217 218
95 91 90 219 203 218
91 95 32 219 220 221
32 33 91 42 206 221
12 1 23 22 27 222
23 92 12 223 208 222
92 23 24 223 28 224
24 93 92 225 211 224
93 24 25 225 29 226
25 94 93 227 214 226
94 25 26 227 30 228
26 95 94 229 217 228
95 26 2 229 31 230
2 32 95 41 220 230
      </DataArray>
      <DataArray type="Int32" Name="offsets" format="ascii">
6
12
18
24
30
36
42
48
54
60
66
72
78
84
90
96
102
108
114
120
126
132
138
144
150
156
162
168
174
180
186
192
198
204
210
216
222
228
234
240
246
252
258
264
270
276
282
288
294
300
306
312
318
324
330
336
342
348
354
360
366
372
378
384
390
396
402
408
414
420
426
432
438
444
450
456
462
468
474
480
486
492
498
504
510
516
522
528
534
540
546
552
558
564
570
576
582
588
594
600
      </DataArray>
      <DataArray type="UInt8" Name="types" format="ascii">
22
22
22
22
22
22
22
22
22
22
22
22
22
22
22
22
22
22
22
22
22
22
22
22
22
22
22
22
22
22
22
22
22
22
22
22
22
22
22
22
22
22
22
22
22
22
22
22
22
22
22
22
22
22
22
22
22
22
22
22
22
22
22
22
22
22
22
22
22
22
22
22
22
22
22
22
22
22
22
22
22
22
22
22
22
22
22
22
22
22
22
22
22
22
22
22
22
22
22
22
      </DataArray>
    </Cells>
    <PointData>
      <DataArray type="Float64" NumberOfComponents="3" Name="Velocity" format="ascii">
0 0 0
0 0 0
0 0 0
0 0 0
0 0 0
0 0 0
0 0 0
0 0 0
0 0 0
0 0 0
0 0 0
0 0 0
0 0 0
0 0 0
0 0 0
0 0 0
0 0 0
0 0 0
0 0 0
0 0 0
0 0 0
0 0 0
0 0 0
0 0 0
0 0 0
0 0 0
0 0 0
0 0 0
0 0 0
0 0 0
0 0 0
0 0 0
1 0 0
1 0 0
1 0 0
1 0 0
1 0 0
1 0 0
1 0 0
1 0 0
1 0 0
1 0 0
1 0 0
1 0 0
1 0 0
1 0 0
1 0 0
1 0 0
1 0 0
1 0 0
1 0 0
0 0 0
0 0 0
0 0 0
0 0 0
0 0 0
0 0 0
0 0 0
0 0 0
0 0 0
1 0 0
1 0 0
1 0 0
1 0 0
1 0 0
1 0 0
1 0 0
1 0 0
1 0 0
1 0 0
1 0 0
1 0 0
1 0 0
1 0 0
1 0 0
1 0 0
1 0 0
1 0 0
1 0 0
1 0 0
1 0 0
1 0 0
1 0 0
1 0 0
1 0 0
1 0 0
1 0 0
1 0 0
1 0 0
1 0 0
1 0 0
1 0 0
1 0 0
1 0 0
1 0 0
1 0 0
1 0 0
1 0 0
1 0 0
1 0 0
1 0 0
1 0 0
1 0 0
1 0 0
1 0 0
1 0 0
1 0 0
1 0 0
1 0 0
1 0 0
1 0 0
1 0 0
1 0 0
1 0 0
1 0 0
1 0 0
1 0 0
1 0 0
1 0 0
1 0 0
1 0 0
1 0 0
1 0 0
1 0 0
1 0 0
1 0 0
1 0 0
1 0 0
1 0 0
1 0 0
1 0 0
1 0 0
1 0 0
1 0 0
1 0 0
1 0 0
1 0 0
1 0 0
1 0 0
1 0 0
1 0 0
1 0 0
1 0 0
1 0 0
1 0 0
1 0 0
1 0 0
1 0 0
1 0 0
1 0 0
1 0 0
1 0 0
1 0 0
1 0 0
1 0 0
1 0 0
1 0 0
1 0 0
1 0 0
1 0 0
1 0 0
1 0 0
1 0 0
1 0 0
1 0 0
1 0 0
1 0 0
1 0 0
1 0 0
1 0 0
1 0 0
1 0 0
1 0 0
1 0 0
1 0 0
1 0 0
1 0 0
1 0 0
1 0 0
1 0 0
1 0 0
1 0 0
1 0 0
1 0 0
1 0 0
1 0 0
1 0 0
1 0 0
1 0 0
1 0 0
1 0 0
1 0 0
1 0 0
1 0 0
1 0 0
1 0 0
1 0 0
1 0 0
1 0 0
1 0 0
1 0 0
1 0 0
1 0 0
1 0 0
1 0 0
1 0 0
1 0 0
1 0 0
1 0 0
1 0 0
1 0 0
1 0 0
1 0 0
1 0 0
1 0 0
1 0 0
1 0 0
1 0 0
1 0 0
1 0 0
1 0 0
1 0 0
1 0 0
1 0 0
1 0 0
1 0 0
1 0 0
1 0 0
1 0 0
1 0 0
1 0 0
      </DataArray> 
      <DataArray type="Float64" NumberOfComponents="3" Name="Real Velocity" format="ascii">
0 0 0
0 0 0
-6.17543e-18 1.00123e-16 0
-6.62155e-19 3.58844e-17 0
0 0 0
0 0 0
0 0 0
0 0 0
0 0 0
0 0 0
0 0 0
0 0 0
0 0 0
0 0 0
0 0 0
0 0 0
0 0 0
0 0 0
0 0 0
0 0 0
0 0 0
0 0 0
0 0 0
0 0 0
0 0 0
0 0 0
-4.81616e-19 1.03839e-18 0
0 0 0
0 0 0
0 0 0
0 0 0
3.74704e-17 -1.20605e-16 0
-0.00258415 -0.294735 0
-0.0215544 -0.407888 0
-0.04143 -0.34029 0
-0.0548099 -0.167247 0
-0.0602305 0.0438541 0
-0.0542203 0.241549 0
-0.0346009 0.381581 0
-0.00627923 0.412345 0
0.00726849 0.284572 0
0.00491629 -0.163867 0
-0.0108892 -0.376869 0
-0.0331017 -0.391574 0
-0.049991 -0.262108 0
-0.0586275 -0.063247 0
-0.0587444 0.146877 0
-0.0458397 0.321202 0
-0.0207466 0.414058 0
0.00470061 0.370443 0
0.0073178 0.155144 0
0 0 0
0 0 0
0 0 0
0 0 0
0 0 0
0 0 0
0 0 0
0 0 0
0 0 0
1 0 0
1 0 0
1 0 0
0.981869 0.00572941 0
1 0 0
1 0 0
1 0 0
0.980243 0.00723322 0
1 0 0
1 0 0
1 0 0
0.978163 0.00659323 0
1 0 0
1 0 0
1 0 0
0.976575 0.00430149 0
1 0 0
1 0 0
1 0 0
0.975933 0.000862109 0
1 0 0
1 0 0
1 0 0
0.976313 -0.00285289 0
1 0 0
1 0 0
1 0 0
0.977667 -0.00597846 0
1 0 0
1 0 0
1 0 0
0.979899 -0.00725229 0
1 0 0
1 0 0
1 0 0
0.981716 -0.0059114 0
1 0 0
1 0 0
1 0 0
1 0 0
1 0 0
1 0 0
1 0 0
1 0 0
1 0 0
1 0 0
1 0 0
0.981659 0.00390365 0
0.512332 0.146686 0
0.507233 0.0857341 0
1 0 0
1 0 0
1 0 0
1 0 0
1 0 0
1 0 0
1 0 0
1 0 0
1 0 0
1 0 0
1 0 0
0.981177 0.006817 0
0.490371 0.201838 0
0.504795 0.185288 0
1 0 0
1 0 0
1 0 0
1 0 0
1 0 0
1 0 0
1 0 0
1 0 0
1 0 0
1 0 0
1 0 0
0.979162 0.00716361 0
0.457033 0.185472 0
0.473333 0.20156 0
1 0 0
1 0 0
1 0 0
1 0 0
1 0 0
1 0 0
1 0 0
1 0 0
1 0 0
1 0 0
1 0 0
0.977294 0.00561211 0
0.431954 0.118911 0
0.443038 0.156898 0
1 0 0
1 0 0
1 0 0
1 0 0
1 0 0
1 0 0
1 0 0
1 0 0
1 0 0
1 0 0
1 0 0
0.976151 0.00265387 0
0.422523 0.0224671 0
0.425553 0.0726293 0
1 0 0
1 0 0
1 0 0
1 0 0
1 0 0
1 0 0
1 0 0
1 0 0
1 0 0
1 0 0
1 0 0
0.976049 -0.00103538 0
0.429101 -0.0811917 0
0.424505 -0.0303742 0
1 0 0
1 0 0
1 0 0
1 0 0
1 0 0
1 0 0
1 0 0
1 0 0
1 0 0
1 0 0
1 0 0
0.976907 -0.0045919 0
0.449534 -0.16683 0
0.437887 -0.128728 0
1 0 0
1 0 0
1 0 0
1 0 0
1 0 0
1 0 0
1 0 0
1 0 0
1 0 0
1 0 0
1 0 0
0.97873 -0.00698034 0
0.480652 -0.200264 0
0.464026 -0.192488 0
1 0 0
1 0 0
1 0 0
1 0 0
1 0 0
1 0 0
1 0 0
1 0 0
1 0 0
1 0 0
1 0 0
0.980936 -0.00688638 0
0.50584 -0.150379 0
0.495305 -0.187133 0
1 0 0
1 0 0
1 0 0
1 0 0
1 0 0
1 0 0
1 0 0
0.981662 -0.0038161 0
0.505694 -0.0864757 0
      </DataArray> 
      <DataArray type="Float64" NumberOfComponents="3" Name="Pressure" format="ascii">
0 0 0
0 0 0
0 0 0
0 0 0
0 0 0
0 0 0
0 0 0
0 0 0
0 0 0
0 0 0
0 0 0
0 0 0
0 0 0
0 0 0
0 0 0
0 0 0
0 0 0
0 0 0
0 0 0
0 0 0
0 0 0
0 0 0
0 0 0
0 0 0
0 0 0
0 0 0
0 0 0
0 0 0
0 0 0
0 0 0
0 0 0
0 0 0
0 0 0
0 0 0
0 0 0
0 0 0
0 0 0
0 0 0
0 0 0
0 0 0
0 0 0
0 0 0
0 0 0
0 0 0
0 0 0
0 0 0
0 0 0
0 0 0
0 0 0
0 0 0
0 0 0
0 0 0
0 0 0
0 0 0
0 0 0
0 0 0
0 0 0
0 0 0
0 0 0
0 0 0
0 0 0
0 0 0
0 0 0
0 0 0
0 0 0
0 0 0
0 0 0
0 0 0
0 0 0
0 0 0
0 0 0
0 0 0
0 0 0
0 0 0
0 0 0
0 0 0
0 0 0
0 0 0
0 0 0
0 0 0
0 0 0
0 0 0
0 0 0
0 0 0
0 0 0
0 0 0
0 0 0
0 0 0
0 0 0
0 0 0
0 0 0
0 0 0
0 0 0
0 0 0
0 0 0
0 0 0
0 0 0
0 0 0
0 0 0
0 0 0
0 0 0
0 0 0
0 0 0
0 0 0
0 0 0
0 0 0
0 0 0
0 0 0
0 0 0
0 0 0
0 0 0
0 0 0
0 0 0
0 0 0
0 0 0
0 0 0
0 0 0
0 0 0
0 0 0
0 0 0
0 0 0
0 0 0
0 0 0
0 0 0
0 0 0
0 0 0
0 0 0
0 0 0
0 0 0
0 0 0
0 0 0
0 0 0
0 0 0
0 0 0
0 0 0
0 0 0
0 0 0
0 0 0
0 0 0
0 0 0
0 0 0
0 0 0
0 0 0
0 0 0
0 0 0
0 0 0
0 0 0
0 0 0
0 0 0
0 0 0
0 0 0
0 0 0
0 0 0
0 0 0
0 0 0
0 0 0
0 0 0
0 0 0
0 0 0
0 0 0
0 0 0
0 0 0
0 0 0
0 0 0
0 0 0
0 0 0
0 0 0
0 0 0
0 0 0
0 0 0
0 0 0
0 0 0
0 0 0
0 0 0
0 0 0
0 0 0
0 0 0
0 0 0
0 0 0
0 0 0
0 0 0
0 0 0
0 0 0
0 0 0
0 0 0
0 0 0
0 0 0
0 0 0
0 0 0
0 0 0
0 0 0
0 0 0
0 0 0
0 0 0
0 0 0
0 0 0
0 0 0
0 0 0
0 0 0
0 0 0
0 0 0
0 0 0
0 0 0
0 0 0
0 0 0
0 0 0
0 0 0
0 0 0
0 0 0
0 0 0
0 0 0
0 0 0
0 0 0
0 0 0
0 0 0
0 0 0
0 0 0
0 0 0
0 0 0
0 0 0
0 0 0
0 0 0
0 0 0
0 0 0
0 0 0
0 0 0
0 0 0
0 0 0
0 0 0
0 0 0
0 0 0
      </DataArray> 
      <DataArray type="Float64" NumberOfComponents="3" Name="Real Pressure" format="ascii">
0 0 0
0 0 0
0 0 0.160654
0 0 -0.180082
0 0 0
0 0 0
0 0 0
0 0 0
0 0 0
0 0 0
0 0 0
0 0 0
0 0 0
0 0 0
0 0 0
0 0 0
0 0 0
0 0 0
0 0 0
0 0 0
0 0 0
0 0 0
0 0 0
0 0 0
0 0 0
0 0 0
0 0 0.00777748
0 0 0
0 0 0
0 0 0
0 0 0
0 0 0.165635
0 0 0.0671148
0 0 -0.0288675
0 0 -0.0402905
0 0 -0.0495778
0 0 -0.0232302
0 0 0.00625139
0 0 0.0322943
0 0 0.0070488
0 0 -0.0531961
0 0 0.12726
0 0 0.00138385
0 0 -0.0409084
0 0 -0.0450913
0 0 -0.0303301
0 0 -0.00599529
0 0 0.0252369
0 0 0.0249257
0 0 -0.0186217
0 0 -0.169963
0 0 -0.0110438
0 0 0
0 0 0
0 0 0
0 0 -0.173008
0 0 0
0 0 0
0 0 0
0 0 0
0 0 0
0 0 0
0 0 0
0 0 -0.000632371
0 0 0
0 0 0
0 0 0
0 0 0.00138562
0 0 0
0 0 0
0 0 0
0 0 0.00238403
0 0 0
0 0 0
0 0 0
0 0 0.000960655
0 0 0
0 0 0
0 0 0
0 0 -0.000136975
0 0 0
0 0 0
0 0 0
0 0 -0.00170656
0 0 0
0 0 0
0 0 0
0 0 -0.00202706
0 0 0
0 0 0
0 0 0
0 0 -0.00197642
0 0 0
0 0 0
0 0 0
0 0 0.000194029
0 0 0
0 0 0
0 0 0
0 0 0
0 0 0
0 0 0
0 0 0
0 0 0
0 0 0
0 0 0
0 0 0
0 0 -0.00559699
0 0 -0.0154702
0 0 -0.111539
0 0 0
0 0 0
0 0 0
0 0 0
0 0 0
0 0 0
0 0 0
0 0 0
0 0 0
0 0 0
0 0 0
0 0 0.000790416
0 0 0.040125
0 0 0.0150735
0 0 0
0 0 0
0 0 0
0 0 0
0 0 0
0 0 0
0 0 0
0 0 0
0 0 0
0 0 0
0 0 0
0 0 0.00236681
0 0 0.0432389
0 0 0.0481354
0 0 0
0 0 0
0 0 0
0 0 0
0 0 0
0 0 0
0 0 0
0 0 0
0 0 0
0 0 0
0 0 0
0 0 0.00179743
0 0 0.019341
0 0 0.03075
0 0 0
0 0 0
0 0 0
0 0 0
0 0 0
0 0 0
0 0 0
0 0 0
0 0 0
0 0 0
0 0 0
0 0 0.000496224
0 0 -0.00673128
0 0 0.00507903
0 0 0
0 0 0
0 0 0
0 0 0
0 0 0
0 0 0
0 0 0
0 0 0
0 0 0
0 0 0
0 0 0
0 0 -0.000855891
0 0 -0.0304536
0 0 -0.0185883
0 0 0
0 0 0
0 0 0
0 0 0
0 0 0
0 0 0
0 0 0
0 0 0
0 0 0
0 0 0
0 0 0
0 0 -0.00183164
0 0 -0.0463149
0 0 -0.0375365
0 0 0
0 0 0
0 0 0
0 0 0
0 0 0
0 0 0
0 0 0
0 0 0
0 0 0
0 0 0
0 0 0
0 0 -0.00195119
0 0 -0.0398061
0 0 -0.04526
0 0 0
0 0 0
0 0 0
0 0 0
0 0 0
0 0 0
0 0 0
0 0 0
0 0 0
0 0 0
0 0 0
0 0 -0.00212321
0 0 0.00711678
0 0 -0.0284288
0 0 0
0 0 0
0 0 0
0 0 0
0 0 0
0 0 0
0 0 0
0 0 0.00415028
0 0 0.0802441
      </DataArray> 
      <DataArray type="Float64" NumberOfComponents="3" Name="Lagrange Multipliers" format="ascii">
0 0 0 
0 0 0 
0 0 0 
0 0 0 
0 0 0 
0 0 0 
0 0 0 
0 0 0 
0 0 0 
0 0 0 
0 0 0 
0 0 0 
0 0 0 
0 0 0 
0 0 0 
0 0 0 
0 0 0 
0 0 0 
0 0 0 
0 0 0 
0 0 0 
0 0 0 
0 0 0 
0 0 0 
0 0 0 
0 0 0 
0 0 0 
0 0 0 
0 0 0 
0 0 0 
0 0 0 
0 0 0 
0 0 0 
0 0 0 
0 0 0 
0 0 0 
0 0 0 
0 0 0 
0 0 0 
0 0 0 
0 0 0 
0 0 0 
0 0 0 
0 0 0 
0 0 0 
0 0 0 
0 0 0 
0 0 0 
0 0 0 
0 0 0 
0 0 0 
0 0 0 
0 0 0 
0 0 0 
0 0 0 
0 0 0 
0 0 0 
0 0 0 
0 0 0 
0 0 0 
0 0 0 
0 0 0 
0 0 0 
0 0 0 
0 0 0 
0 0 0 
0 0 0 
0 0 0 
0 0 0 
0 0 0 
0 0 0 
0 0 0 
0 0 0 
0 0 0 
0 0 0 
0 0 0 
0 0 0 
0 0 0 
0 0 0 
0 0 0 
0 0 0 
0 0 0 
0 0 0 
0 0 0 
0 0 0 
0 0 0 
0 0 0 
0 0 0 
0 0 0 
0 0 0 
0 0 0 
0 0 0 
0 0 0 
0 0 0 
0 0 0 
0 0 0 
0 0 0 
0 0 0 
0 0 0 
0 0 0 
0 0 0 
0 0 0 
0 0 0 
0 0 0 
0 0 0 
0 0 0 
0 0 0 
0 0 0 
0 0 0 
0 0 0 
0 0 0 
0 0 0 
0 0 0 
0 0 0 
0 0 0 
0 0 0 
0 0 0 
0 0 0 
0 0 0 
0 0 0 
0 0 0 
0 0 0 
0 0 0 
0 0 0 
0 0 0 
0 0 0 
0 0 0 
0 0 0 
0 0 0 
0 0 0 
0 0 0 
0 0 0 
0 0 0 
0 0 0 
0 0 0 
0 0 0 
0 0 0 
0 0 0 
0 0 0 
0 0 0 
0 0 0 
0 0 0 
0 0 0 
0 0 0 
0 0 0 
0 0 0 
0 0 0 
0 0 0 
0 0 0 
0 0 0 
0 0 0 
0 0 0 
0 0 0 
0 0 0 
0 0 0 
0 0 0 
0 0 0 
0 0 0 
0 0 0 
0 0 0 
0 0 0 
0 0 0 
0 0 0 
0 0 0 
0 0 0 
0 0 0 
0 0 0 
0 0 0 
0 0 0 
0 0 0 
0 0 0 
0 0 0 
0 0 0 
0 0 0 
0 0 0 
0 0 0 
0 0 0 
0 0 0 
0 0 0 
0 0 0 
0 0 0 
0 0 0 
0 0 0 
0 0 0 
0 0 0 
0 0 0 
0 0 0 
0 0 0 
0 0 0 
0 0 0 
0 0 0 
0 0 0 
0 0 0 
0 0 0 
0 0 0 
0 0 0 
0 0 0 
0 0 0 
0 0 0 
0 0 0 
0 0 0 
0 0 0 
0 0 0 
0 0 0 
0 0 0 
0 0 0 
0 0 0 
0 0 0 
0 0 0 
0 0 0 
0 0 0 
0 0 0 
0 0 0 
0 0 0 
0 0 0 
0 0 0 
0 0 0 
0 0 0 
0 0 0 
0 0 0 
0 0 0 
0 0 0 
0 0 0 
0 0 0 
0 0 0 
0 0 0 
0 0 0 
0 0 0 
0 0 0 
0 0 0 
0 0 0 
      </DataArray> 
      <DataArray type="Float64" NumberOfComponents="1" Name="printDistFunction" format="ascii">
0.5
0.5
-0
-0
0.5
0.5
0.5
0.5
0.5
0.5
0.5
0.5
0.5
0.5
0.5
0.5
0.5
0.5
0.5
0.5
0.5
0.5
0.5
0.4
0.3
0.2
0.1
0.45
0.35
0.25
0.15
0.05
-0
-0
-0
-0
-0
-0
-0
-0
-0
-0
-0
-0
-0
-0
-0
-0
-0
-0
-0
0.1
0.2
0.3
0.4
0.05
0.15
0.25
0.35
0.45
0.4
0.3
0.2
0.1
0.4
0.3
0.2
0.1
0.4
0.3
0.2
0.1
0.4
0.3
0.2
0.1
0.4
0.3
0.2
0.1
0.4
0.3
0.2
0.1
0.4
0.3
0.2
0.1
0.4
0.3
0.2
0.1
0.4
0.3
0.2
0.1
0.45
0.45
0.4
0.35
0.35
0.3
0.25
0.25
0.2
0.15
0.15
0.1
0.05
0.05
0.45
0.45
0.4
0.35
0.35
0.3
0.25
0.25
0.2
0.15
0.15
0.1
0.05
0.05
0.45
0.45
0.4
0.35
0.35
0.3
0.25
0.25
0.2
0.15
0.15
0.1
0.05
0.05
0.45
0.45
0.4
0.35
0.35
0.3
0.25
0.25
0.2
0.15
0.15
0.1
0.05
0.05
0.45
0.45
0.4
0.35
0.35
0.3
0.25
0.25
0.2
0.15
0.15
0.1
0.05
0.05
0.45
0.45
0.4
0.35
0.35
0.3
0.25
0.25
0.2
0.15
0.15
0.1
0.05
0.05
0.45
0.45
0.4
0.35
0.35
0.3
0.25
0.25
0.2
0.15
0.15
0.1
0.05
0.05
0.45
0.45
0.4
0.35
0.35
0.3
0.25
0.25
0.2
0.15
0.15
0.1
0.05
0.05
0.45
0.45
0.4
0.35
0.35
0.3
0.25
0.25
0.2
0.15
0.15
0.1
0.05
0.05
0.45
0.4
0.35
0.3
0.25
0.2
0.15
0.1
0.05
      </DataArray> 
      <DataArray type="Float64" NumberOfComponents="1" Name="EnergyWeightFunction" format="ascii">
0.99
0.99
-0
-0
0.99
0.99
0.99
0.99
0.99
0.99
0.99
0.99
0.99
0.99
0.99
0.99
0.99
0.99
0.99
0.99
0.99
0.99
0.99
0.99
0.99
0.99
0.980198
0.99
0.99
0.99
0.99
0.490099
-0
-0
-0
-0
-0
-0
-0
-0
-0
-0
-0
-0
-0
-0
-0
-0
-0
-0
-0
0.980198
0.99
0.99
0.99
0.490099
0.99
0.99
0.99
0.99
0.99
0.99
0.99
0.980198
0.99
0.99
0.99
0.980198
0.99
0.99
0.99
0.980198
0.99
0.99
0.99
0.980198
0.99
0.99
0.99
0.980198
0.99
0.99
0.99
0.980198
0.99
0.99
0.99
0.980198
0.99
0.99
0.99
0.980198
0.99
0.99
0.99
0.980198
0.99
0.99
0.99
0.99
0.99
0.99
0.99
0.99
0.99
0.99
0.99
0.980198
0.490099
0.490099
0.99
0.99
0.99
0.99
0.99
0.99
0.99
0.99
0.99
0.99
0.99
0.980198
0.490099
0.490099
0.99
0.99
0.99
0.99
0.99
0.99
0.99
0.99
0.99
0.99
0.99
0.980198
0.490099
0.490099
0.99
0.99
0.99
0.99
0.99
0.99
0.99
0.99
0.99
0.99
0.99
0.980198
0.490099
0.490099
0.99
0.99
0.99
0.99
0.99
0.99
0.99
0.99
0.99
0.99
0.99
0.980198
0.490099
0.490099
0.99
0.99
0.99
0.99
0.99
0.99
0.99
0.99
0.99
0.99
0.99
0.980198
0.490099
0.490099
0.99
0.99
0.99
0.99
0.99
0.99
0.99
0.99
0.99
0.99
0.99
0.980198
0.490099
0.490099
0.99
0.99
0.99
0.99
0.99
0.99
0.99
0.99
0.99
0.99
0.99
0.980198
0.490099
0.490099
0.99
0.99
0.99
0.99
0.99
0.99
0.99
0.99
0.99
0.99
0.99
0.980198
0.490099
0.490099
0.99
0.99
0.99
0.99
0.99
0.99
0.99
0.980198
0.490099
      </DataArray> 
    </PointData>
    <CellData>
      <DataArray type="Float64" NumberOfComponents="1" Name="Glue Zone" format="ascii">
0
0
0
0
0
0
0
0
1
1
0
0
0
0
0
0
0
0
1
1
0
0
0
0
0
0
0
0
1
1
0
0
0
0
0
0
0
0
1
1
0
0
0
0
0
0
0
0
1
1
0
0
0
0
0
0
0
0
1
1
0
0
0
0
0
0
0
0
1
1
0
0
0
0
0
0
0
0
1
1
0
0
0
0
0
0
0
0
1
1
0
0
0
0
0
0
0
0
1
1
      </DataArray> 
    </CellData>
  </Piece>
  </UnstructuredGrid>
</VTKFile>
