<?xml version="1.0"?>
<VTKFile type="UnstructuredGrid">
  <UnstructuredGrid>
  <Piece NumberOfPoints="3321"  NumberOfCells="1600">
    <Points>
      <DataArray type="Float64" NumberOfComponents="3" format="ascii">
0 0 0.1
1 0 0.1
1 0.5 0.1
0 0.5 0.1
0.025 0 0.1
0.05 0 0.1
0.075 0 0.1
0.1 0 0.1
0.125 0 0.1
0.15 0 0.1
0.175 0 0.1
0.2 0 0.1
0.225 0 0.1
0.25 0 0.1
0.275 0 0.1
0.3 0 0.1
0.325 0 0.1
0.35 0 0.1
0.375 0 0.1
0.4 0 0.1
0.425 0 0.1
0.45 0 0.1
0.475 0 0.1
0.5 0 0.1
0.525 0 0.1
0.55 0 0.1
0.575 0 0.1
0.6 0 0.1
0.625 0 0.1
0.65 0 0.1
0.675 0 0.1
0.7 0 0.1
0.725 0 0.1
0.75 0 0.1
0.775 0 0.1
0.8 0 0.1
0.825 0 0.1
0.85 0 0.1
0.875 0 0.1
0.9 0 0.1
0.925 0 0.1
0.95 0 0.1
0.975 0 0.1
0.0125 0 0.1
0.0375 0 0.1
0.0625 0 0.1
0.0875 0 0.1
0.1125 0 0.1
0.1375 0 0.1
0.1625 0 0.1
0.1875 0 0.1
0.2125 0 0.1
0.2375 0 0.1
0.2625 0 0.1
0.2875 0 0.1
0.3125 0 0.1
0.3375 0 0.1
0.3625 0 0.1
0.3875 0 0.1
0.4125 0 0.1
0.4375 0 0.1
0.4625 0 0.1
0.4875 0 0.1
0.5125 0 0.1
0.5375 0 0.1
0.5625 0 0.1
0.5875 0 0.1
0.6125 0 0.1
0.6375 0 0.1
0.6625 0 0.1
0.6875 0 0.1
0.7125 0 0.1
0.7375 0 0.1
0.7625 0 0.1
0.7875 0 0.1
0.8125 0 0.1
0.8375 0 0.1
0.8625 0 0.1
0.8875 0 0.1
0.9125 0 0.1
0.9375 0 0.1
0.9625 0 0.1
0.9875 0 0.1
1 0.025 0.1
1 0.05 0.1
1 0.075 0.1
1 0.1 0.1
1 0.125 0.1
1 0.15 0.1
1 0.175 0.1
1 0.2 0.1
1 0.225 0.1
1 0.25 0.1
1 0.275 0.1
1 0.3 0.1
1 0.325 0.1
1 0.35 0.1
1 0.375 0.1
1 0.4 0.1
1 0.425 0.1
1 0.45 0.1
1 0.475 0.1
1 0.0125 0.1
1 0.0375 0.1
1 0.0625 0.1
1 0.0875 0.1
1 0.1125 0.1
1 0.1375 0.1
1 0.1625 0.1
1 0.1875 0.1
1 0.2125 0.1
1 0.2375 0.1
1 0.2625 0.1
1 0.2875 0.1
1 0.3125 0.1
1 0.3375 0.1
1 0.3625 0.1
1 0.3875 0.1
1 0.4125 0.1
1 0.4375 0.1
1 0.4625 0.1
1 0.4875 0.1
0.975 0.5 0.1
0.95 0.5 0.1
0.925 0.5 0.1
0.9 0.5 0.1
0.875 0.5 0.1
0.85 0.5 0.1
0.825 0.5 0.1
0.8 0.5 0.1
0.775 0.5 0.1
0.75 0.5 0.1
0.725 0.5 0.1
0.7 0.5 0.1
0.675 0.5 0.1
0.65 0.5 0.1
0.625 0.5 0.1
0.6 0.5 0.1
0.575 0.5 0.1
0.55 0.5 0.1
0.525 0.5 0.1
0.5 0.5 0.1
0.475 0.5 0.1
0.45 0.5 0.1
0.425 0.5 0.1
0.4 0.5 0.1
0.375 0.5 0.1
0.35 0.5 0.1
0.325 0.5 0.1
0.3 0.5 0.1
0.275 0.5 0.1
0.25 0.5 0.1
0.225 0.5 0.1
0.2 0.5 0.1
0.175 0.5 0.1
0.15 0.5 0.1
0.125 0.5 0.1
0.1 0.5 0.1
0.075 0.5 0.1
0.05 0.5 0.1
0.025 0.5 0.1
0.9875 0.5 0.1
0.9625 0.5 0.1
0.9375 0.5 0.1
0.9125 0.5 0.1
0.8875 0.5 0.1
0.8625 0.5 0.1
0.8375 0.5 0.1
0.8125 0.5 0.1
0.7875 0.5 0.1
0.7625 0.5 0.1
0.7375 0.5 0.1
0.7125 0.5 0.1
0.6875 0.5 0.1
0.6625 0.5 0.1
0.6375 0.5 0.1
0.6125 0.5 0.1
0.5875 0.5 0.1
0.5625 0.5 0.1
0.5375 0.5 0.1
0.5125 0.5 0.1
0.4875 0.5 0.1
0.4625 0.5 0.1
0.4375 0.5 0.1
0.4125 0.5 0.1
0.3875 0.5 0.1
0.3625 0.5 0.1
0.3375 0.5 0.1
0.3125 0.5 0.1
0.2875 0.5 0.1
0.2625 0.5 0.1
0.2375 0.5 0.1
0.2125 0.5 0.1
0.1875 0.5 0.1
0.1625 0.5 0.1
0.1375 0.5 0.1
0.1125 0.5 0.1
0.0875 0.5 0.1
0.0625 0.5 0.1
0.0375 0.5 0.1
0.0125 0.5 0.1
0 0.475 0.1
0 0.45 0.1
0 0.425 0.1
0 0.4 0.1
0 0.375 0.1
0 0.35 0.1
0 0.325 0.1
0 0.3 0.1
0 0.275 0.1
0 0.25 0.1
0 0.225 0.1
0 0.2 0.1
0 0.175 0.1
0 0.15 0.1
0 0.125 0.1
0 0.1 0.1
0 0.075 0.1
0 0.05 0.1
0 0.025 0.1
0 0.4875 0.1
0 0.4625 0.1
0 0.4375 0.1
0 0.4125 0.1
0 0.3875 0.1
0 0.3625 0.1
0 0.3375 0.1
0 0.3125 0.1
0 0.2875 0.1
0 0.2625 0.1
0 0.2375 0.1
0 0.2125 0.1
0 0.1875 0.1
0 0.1625 0.1
0 0.1375 0.1
0 0.1125 0.1
0 0.0875 0.1
0 0.0625 0.1
0 0.0375 0.1
0 0.0125 0.1
0.975 0.475 0.1
0.975 0.45 0.1
0.975 0.425 0.1
0.975 0.4 0.1
0.975 0.375 0.1
0.975 0.35 0.1
0.975 0.325 0.1
0.975 0.3 0.1
0.975 0.275 0.1
0.975 0.25 0.1
0.975 0.225 0.1
0.975 0.2 0.1
0.975 0.175 0.1
0.975 0.15 0.1
0.975 0.125 0.1
0.975 0.1 0.1
0.975 0.075 0.1
0.975 0.05 0.1
0.975 0.025 0.1
0.95 0.475 0.1
0.95 0.45 0.1
0.95 0.425 0.1
0.95 0.4 0.1
0.95 0.375 0.1
0.95 0.35 0.1
0.95 0.325 0.1
0.95 0.3 0.1
0.95 0.275 0.1
0.95 0.25 0.1
0.95 0.225 0.1
0.95 0.2 0.1
0.95 0.175 0.1
0.95 0.15 0.1
0.95 0.125 0.1
0.95 0.1 0.1
0.95 0.075 0.1
0.95 0.05 0.1
0.95 0.025 0.1
0.925 0.475 0.1
0.925 0.45 0.1
0.925 0.425 0.1
0.925 0.4 0.1
0.925 0.375 0.1
0.925 0.35 0.1
0.925 0.325 0.1
0.925 0.3 0.1
0.925 0.275 0.1
0.925 0.25 0.1
0.925 0.225 0.1
0.925 0.2 0.1
0.925 0.175 0.1
0.925 0.15 0.1
0.925 0.125 0.1
0.925 0.1 0.1
0.925 0.075 0.1
0.925 0.05 0.1
0.925 0.025 0.1
0.9 0.475 0.1
0.9 0.45 0.1
0.9 0.425 0.1
0.9 0.4 0.1
0.9 0.375 0.1
0.9 0.35 0.1
0.9 0.325 0.1
0.9 0.3 0.1
0.9 0.275 0.1
0.9 0.25 0.1
0.9 0.225 0.1
0.9 0.2 0.1
0.9 0.175 0.1
0.9 0.15 0.1
0.9 0.125 0.1
0.9 0.1 0.1
0.9 0.075 0.1
0.9 0.05 0.1
0.9 0.025 0.1
0.875 0.475 0.1
0.875 0.45 0.1
0.875 0.425 0.1
0.875 0.4 0.1
0.875 0.375 0.1
0.875 0.35 0.1
0.875 0.325 0.1
0.875 0.3 0.1
0.875 0.275 0.1
0.875 0.25 0.1
0.875 0.225 0.1
0.875 0.2 0.1
0.875 0.175 0.1
0.875 0.15 0.1
0.875 0.125 0.1
0.875 0.1 0.1
0.875 0.075 0.1
0.875 0.05 0.1
0.875 0.025 0.1
0.85 0.475 0.1
0.85 0.45 0.1
0.85 0.425 0.1
0.85 0.4 0.1
0.85 0.375 0.1
0.85 0.35 0.1
0.85 0.325 0.1
0.85 0.3 0.1
0.85 0.275 0.1
0.85 0.25 0.1
0.85 0.225 0.1
0.85 0.2 0.1
0.85 0.175 0.1
0.85 0.15 0.1
0.85 0.125 0.1
0.85 0.1 0.1
0.85 0.075 0.1
0.85 0.05 0.1
0.85 0.025 0.1
0.825 0.475 0.1
0.825 0.45 0.1
0.825 0.425 0.1
0.825 0.4 0.1
0.825 0.375 0.1
0.825 0.35 0.1
0.825 0.325 0.1
0.825 0.3 0.1
0.825 0.275 0.1
0.825 0.25 0.1
0.825 0.225 0.1
0.825 0.2 0.1
0.825 0.175 0.1
0.825 0.15 0.1
0.825 0.125 0.1
0.825 0.1 0.1
0.825 0.075 0.1
0.825 0.05 0.1
0.825 0.025 0.1
0.8 0.475 0.1
0.8 0.45 0.1
0.8 0.425 0.1
0.8 0.4 0.1
0.8 0.375 0.1
0.8 0.35 0.1
0.8 0.325 0.1
0.8 0.3 0.1
0.8 0.275 0.1
0.8 0.25 0.1
0.8 0.225 0.1
0.8 0.2 0.1
0.8 0.175 0.1
0.8 0.15 0.1
0.8 0.125 0.1
0.8 0.1 0.1
0.8 0.075 0.1
0.8 0.05 0.1
0.8 0.025 0.1
0.775 0.475 0.1
0.775 0.45 0.1
0.775 0.425 0.1
0.775 0.4 0.1
0.775 0.375 0.1
0.775 0.35 0.1
0.775 0.325 0.1
0.775 0.3 0.1
0.775 0.275 0.1
0.775 0.25 0.1
0.775 0.225 0.1
0.775 0.2 0.1
0.775 0.175 0.1
0.775 0.15 0.1
0.775 0.125 0.1
0.775 0.1 0.1
0.775 0.075 0.1
0.775 0.05 0.1
0.775 0.025 0.1
0.75 0.475 0.1
0.75 0.45 0.1
0.75 0.425 0.1
0.75 0.4 0.1
0.75 0.375 0.1
0.75 0.35 0.1
0.75 0.325 0.1
0.75 0.3 0.1
0.75 0.275 0.1
0.75 0.25 0.1
0.75 0.225 0.1
0.75 0.2 0.1
0.75 0.175 0.1
0.75 0.15 0.1
0.75 0.125 0.1
0.75 0.1 0.1
0.75 0.075 0.1
0.75 0.05 0.1
0.75 0.025 0.1
0.725 0.475 0.1
0.725 0.45 0.1
0.725 0.425 0.1
0.725 0.4 0.1
0.725 0.375 0.1
0.725 0.35 0.1
0.725 0.325 0.1
0.725 0.3 0.1
0.725 0.275 0.1
0.725 0.25 0.1
0.725 0.225 0.1
0.725 0.2 0.1
0.725 0.175 0.1
0.725 0.15 0.1
0.725 0.125 0.1
0.725 0.1 0.1
0.725 0.075 0.1
0.725 0.05 0.1
0.725 0.025 0.1
0.7 0.475 0.1
0.7 0.45 0.1
0.7 0.425 0.1
0.7 0.4 0.1
0.7 0.375 0.1
0.7 0.35 0.1
0.7 0.325 0.1
0.7 0.3 0.1
0.7 0.275 0.1
0.7 0.25 0.1
0.7 0.225 0.1
0.7 0.2 0.1
0.7 0.175 0.1
0.7 0.15 0.1
0.7 0.125 0.1
0.7 0.1 0.1
0.7 0.075 0.1
0.7 0.05 0.1
0.7 0.025 0.1
0.675 0.475 0.1
0.675 0.45 0.1
0.675 0.425 0.1
0.675 0.4 0.1
0.675 0.375 0.1
0.675 0.35 0.1
0.675 0.325 0.1
0.675 0.3 0.1
0.675 0.275 0.1
0.675 0.25 0.1
0.675 0.225 0.1
0.675 0.2 0.1
0.675 0.175 0.1
0.675 0.15 0.1
0.675 0.125 0.1
0.675 0.1 0.1
0.675 0.075 0.1
0.675 0.05 0.1
0.675 0.025 0.1
0.65 0.475 0.1
0.65 0.45 0.1
0.65 0.425 0.1
0.65 0.4 0.1
0.65 0.375 0.1
0.65 0.35 0.1
0.65 0.325 0.1
0.65 0.3 0.1
0.65 0.275 0.1
0.65 0.25 0.1
0.65 0.225 0.1
0.65 0.2 0.1
0.65 0.175 0.1
0.65 0.15 0.1
0.65 0.125 0.1
0.65 0.1 0.1
0.65 0.075 0.1
0.65 0.05 0.1
0.65 0.025 0.1
0.625 0.475 0.1
0.625 0.45 0.1
0.625 0.425 0.1
0.625 0.4 0.1
0.625 0.375 0.1
0.625 0.35 0.1
0.625 0.325 0.1
0.625 0.3 0.1
0.625 0.275 0.1
0.625 0.25 0.1
0.625 0.225 0.1
0.625 0.2 0.1
0.625 0.175 0.1
0.625 0.15 0.1
0.625 0.125 0.1
0.625 0.1 0.1
0.625 0.075 0.1
0.625 0.05 0.1
0.625 0.025 0.1
0.6 0.475 0.1
0.6 0.45 0.1
0.6 0.425 0.1
0.6 0.4 0.1
0.6 0.375 0.1
0.6 0.35 0.1
0.6 0.325 0.1
0.6 0.3 0.1
0.6 0.275 0.1
0.6 0.25 0.1
0.6 0.225 0.1
0.6 0.2 0.1
0.6 0.175 0.1
0.6 0.15 0.1
0.6 0.125 0.1
0.6 0.1 0.1
0.6 0.075 0.1
0.6 0.05 0.1
0.6 0.025 0.1
0.575 0.475 0.1
0.575 0.45 0.1
0.575 0.425 0.1
0.575 0.4 0.1
0.575 0.375 0.1
0.575 0.35 0.1
0.575 0.325 0.1
0.575 0.3 0.1
0.575 0.275 0.1
0.575 0.25 0.1
0.575 0.225 0.1
0.575 0.2 0.1
0.575 0.175 0.1
0.575 0.15 0.1
0.575 0.125 0.1
0.575 0.1 0.1
0.575 0.075 0.1
0.575 0.05 0.1
0.575 0.025 0.1
0.55 0.475 0.1
0.55 0.45 0.1
0.55 0.425 0.1
0.55 0.4 0.1
0.55 0.375 0.1
0.55 0.35 0.1
0.55 0.325 0.1
0.55 0.3 0.1
0.55 0.275 0.1
0.55 0.25 0.1
0.55 0.225 0.1
0.55 0.2 0.1
0.55 0.175 0.1
0.55 0.15 0.1
0.55 0.125 0.1
0.55 0.1 0.1
0.55 0.075 0.1
0.55 0.05 0.1
0.55 0.025 0.1
0.525 0.475 0.1
0.525 0.45 0.1
0.525 0.425 0.1
0.525 0.4 0.1
0.525 0.375 0.1
0.525 0.35 0.1
0.525 0.325 0.1
0.525 0.3 0.1
0.525 0.275 0.1
0.525 0.25 0.1
0.525 0.225 0.1
0.525 0.2 0.1
0.525 0.175 0.1
0.525 0.15 0.1
0.525 0.125 0.1
0.525 0.1 0.1
0.525 0.075 0.1
0.525 0.05 0.1
0.525 0.025 0.1
0.5 0.475 0.1
0.5 0.45 0.1
0.5 0.425 0.1
0.5 0.4 0.1
0.5 0.375 0.1
0.5 0.35 0.1
0.5 0.325 0.1
0.5 0.3 0.1
0.5 0.275 0.1
0.5 0.25 0.1
0.5 0.225 0.1
0.5 0.2 0.1
0.5 0.175 0.1
0.5 0.15 0.1
0.5 0.125 0.1
0.5 0.1 0.1
0.5 0.075 0.1
0.5 0.05 0.1
0.5 0.025 0.1
0.475 0.475 0.1
0.475 0.45 0.1
0.475 0.425 0.1
0.475 0.4 0.1
0.475 0.375 0.1
0.475 0.35 0.1
0.475 0.325 0.1
0.475 0.3 0.1
0.475 0.275 0.1
0.475 0.25 0.1
0.475 0.225 0.1
0.475 0.2 0.1
0.475 0.175 0.1
0.475 0.15 0.1
0.475 0.125 0.1
0.475 0.1 0.1
0.475 0.075 0.1
0.475 0.05 0.1
0.475 0.025 0.1
0.45 0.475 0.1
0.45 0.45 0.1
0.45 0.425 0.1
0.45 0.4 0.1
0.45 0.375 0.1
0.45 0.35 0.1
0.45 0.325 0.1
0.45 0.3 0.1
0.45 0.275 0.1
0.45 0.25 0.1
0.45 0.225 0.1
0.45 0.2 0.1
0.45 0.175 0.1
0.45 0.15 0.1
0.45 0.125 0.1
0.45 0.1 0.1
0.45 0.075 0.1
0.45 0.05 0.1
0.45 0.025 0.1
0.425 0.475 0.1
0.425 0.45 0.1
0.425 0.425 0.1
0.425 0.4 0.1
0.425 0.375 0.1
0.425 0.35 0.1
0.425 0.325 0.1
0.425 0.3 0.1
0.425 0.275 0.1
0.425 0.25 0.1
0.425 0.225 0.1
0.425 0.2 0.1
0.425 0.175 0.1
0.425 0.15 0.1
0.425 0.125 0.1
0.425 0.1 0.1
0.425 0.075 0.1
0.425 0.05 0.1
0.425 0.025 0.1
0.4 0.475 0.1
0.4 0.45 0.1
0.4 0.425 0.1
0.4 0.4 0.1
0.4 0.375 0.1
0.4 0.35 0.1
0.4 0.325 0.1
0.4 0.3 0.1
0.4 0.275 0.1
0.4 0.25 0.1
0.4 0.225 0.1
0.4 0.2 0.1
0.4 0.175 0.1
0.4 0.15 0.1
0.4 0.125 0.1
0.4 0.1 0.1
0.4 0.075 0.1
0.4 0.05 0.1
0.4 0.025 0.1
0.375 0.475 0.1
0.375 0.45 0.1
0.375 0.425 0.1
0.375 0.4 0.1
0.375 0.375 0.1
[...]
    <PointData>
      <DataArray type="Float64" NumberOfComponents="3" Name="Velocity" format="ascii">
0 0 0
0 0 0
0 0 0
0 0 0
0 0 0
0 0 0
0 0 0
0 0 0
0 0 0
0 0 0
0 0 0
0 0 0
0 0 0
0 0 0
0 0 0
0 0 0
0 0 0
0 0 0
0 0 0
0 0 0
0 0 0
0 0 0
0 0 0
0 0 0
0 0 0
0 0 0
0 0 0
0 0 0
0 0 0
0 0 0
0 0 0
0 0 0
0 0 0
0 0 0
0 0 0
0 0 0
0 0 0
0 0 0
0 0 0
0 0 0
0 0 0
0 0 0
0 0 0
0 0 0
0 0 0
0 0 0
0 0 0
0 0 0
0 0 0
0 0 0
0 0 0
0 0 0
0 0 0
0 0 0
0 0 0
0 0 0
0 0 0
0 0 0
0 0 0
0 0 0
0 0 0
0 0 0
0 0 0
0 0 0
0 0 0
0 0 0
0 0 0
0 0 0
0 0 0
0 0 0
0 0 0
0 0 0
0 0 0
0 0 0
0 0 0
0 0 0
0 0 0
0 0 0
0 0 0
0 0 0
0 0 0
0 0 0
0 0 0
0 0 0
0 0 0
0 0 0
0 0 0
0 0 0
0 0 0
0 0 0
0 0 0
0 0 0
0 0 0
0 0 0
0 0 0
0 0 0
0 0 0
0 0 0
0 0 0
0 0 0
0 0 0
0 0 0
0 0 0
0 0 0
0 0 0
0 0 0
0 0 0
0 0 0
0 0 0
0 0 0
0 0 0
0 0 0
0 0 0
0 0 0
0 0 0
0 0 0
0 0 0
0 0 0
0 0 0
0 0 0
0 0 0
0 0 0
-0.00246535 -0.0321022 0
-0.00827298 -0.0576805 0
-0.0168896 -0.0784315 0
-0.0269362 -0.0946961 0
-0.0383243 -0.106759 0
-0.0507142 -0.114371 0
-0.0629685 -0.118275 0
-0.0749052 -0.118596 0
-0.0863162 -0.115798 0
-0.0967436 -0.110668 0
-0.106152 -0.103253 0
-0.114445 -0.0941989 0
-0.121468 -0.0838543 0
-0.127335 -0.0724679 0
-0.132092 -0.0605074 0
-0.135733 -0.0481071 0
-0.138347 -0.0354528 0
-0.139969 -0.0227359 0
-0.140616 -0.00997682 0
-0.140359 0.00267948 0
-0.139211 0.0151933 0
-0.137183 0.0275242 0
-0.134263 0.0395684 0
-0.130449 0.0513036 0
-0.12574 0.0625876 0
-0.120109 0.0732711 0
-0.113567 0.0832722 0
-0.106092 0.0922464 0
-0.097654 0.100014 0
-0.0884119 0.106278 0
-0.0784551 0.110554 0
-0.0677352 0.112717 0
-0.0565586 0.112231 0
-0.0452701 0.108746 0
-0.034353 0.1016 0
-0.0245595 0.0898917 0
-0.0156424 0.0735967 0
-0.00788653 0.0527441 0
-0.00250846 0.027622 0
-0.00117624 -0.0163887 0
-0.00499686 -0.0455179 0
-0.0124214 -0.0687249 0
-0.021826 -0.0872113 0
-0.0325549 -0.101399 0
-0.0445876 -0.111264 0
-0.0569721 -0.116993 0
-0.0690859 -0.119115 0
-0.080811 -0.117793 0
-0.0917468 -0.113806 0
-0.101665 -0.107489 0
-0.11053 -0.0991828 0
-0.118181 -0.0894512 0
-0.124606 -0.0785098 0
-0.129915 -0.0667847 0
-0.134101 -0.0545663 0
-0.137211 -0.0419799 0
-0.139323 -0.0292618 0
-0.14044 -0.0164827 0
-0.140624 -0.00373285 0
-0.139913 0.00888064 0
-0.138317 0.0213426 0
-0.135837 0.0335602 0
-0.132461 0.045482 0
-0.128194 0.0570375 0
-0.123018 0.0680501 0
-0.116923 0.0784402 0
-0.109914 0.0879732 0
-0.101944 0.0963734 0
-0.093078 0.103464 0
-0.083484 0.108753 0
-0.0731254 0.111993 0
-0.0621304 0.112912 0
-0.0508686 0.110955 0
-0.0397027 0.105758 0
-0.0292862 0.0964331 0
-0.0199366 0.0824033 0
-0.0114989 0.0638263 0
-0.00476958 0.0408694 0
-0.00213215 0.0132682 0
0 0 0
0 0 0
0 0 0
0 0 0
0 0 0
0 0 0
0 0 0
0 0 0
0 0 0
0 0 0
0 0 0
0 0 0
0 0 0
0 0 0
0 0 0
0 0 0
0 0 0
0 0 0
0 0 0
0 0 0
0 0 0
0 0 0
0 0 0
0 0 0
0 0 0
0 0 0
0 0 0
0 0 0
0 0 0
0 0 0
0 0 0
0 0 0
0 0 0
0 0 0
0 0 0
0 0 0
0 0 0
0 0 0
0 0 0
-0.00320491 -0.0265326 0
-0.0030099 -0.0224693 0
-0.00273521 -0.018758 0
-0.00191462 -0.015847 0
-0.00133707 -0.0138726 0
-0.00112798 -0.012073 0
-0.00100928 -0.010404 0
-0.000918432 -0.00886743 0
-0.000840999 -0.00745573 0
-0.000771384 -0.0061584 0
-0.000705257 -0.00496748 0
-0.00063842 -0.0038803 0
-0.000566848 -0.00290032 0
-0.000486934 -0.002037 0
-0.000395961 -0.00130497 0
-0.000293014 -0.000722099 0
-0.000180936 -0.000305975 0
-7.00539e-05 -6.69157e-05 0
1.53862e-05 9.22033e-06 0
-0.00817541 -0.0482726 0
-0.00765767 -0.0412881 0
-0.00694095 -0.035602 0
-0.00558222 -0.030898 0
-0.00444562 -0.0269348 0
-0.00385093 -0.0233024 0
-0.00344553 -0.0200367 0
-0.00312466 -0.0170867 0
-0.00285313 -0.0144057 0
-0.00261206 -0.0119587 0
-0.00238613 -0.0097232 0
-0.00216115 -0.00768934 0
-0.00192399 -0.00585878 0
-0.00166331 -0.00424346 0
-0.00137092 -0.0028632 0
-0.00104438 -0.00174198 0
-0.000691896 -0.000901754 0
-0.000341703 -0.000352627 0
-6.12451e-05 -7.63644e-05 0
-0.0153659 -0.0665139 0
-0.0139604 -0.0575027 0
-0.0125418 -0.0501116 0
-0.0108587 -0.0438945 0
-0.00923974 -0.0383945 0
-0.00809945 -0.03326 0
-0.0072348 -0.028626 0
-0.00653877 -0.0244524 0
-0.00595356 -0.0206738 0
-0.00543922 -0.0172361 0
-0.0049626 -0.0141034 0
-0.00449416 -0.011257 0
-0.00400768 -0.00869412 0
-0.00348131 -0.00642455 0
-0.00289995 -0.00446785 0
-0.00225953 -0.00284844 0
-0.00157446 -0.00158939 0
-0.000889969 -0.00070416 0
-0.000303228 -0.000186635 0
-0.0242953 -0.0809763 0
-0.0218258 -0.0705579 0
-0.0195859 -0.0618291 0
-0.0174331 -0.0543835 0
-0.0153354 -0.0477878 0
-0.0135886 -0.0415714 0
-0.0121645 -0.0358949 0
-0.0109887 -0.0307496 0
-0.00999344 -0.0260792 0
-0.00911969 -0.0218274 0
-0.00831459 -0.0179523 0
-0.00753083 -0.0144298 0
-0.00672692 -0.011252 0
-0.00586891 -0.00842563 0
-0.00493358 -0.0059678 0
-0.00391394 -0.00390234 0
-0.00282749 -0.00225465 0
-0.00172831 -0.0010469 0
-0.000723954 -0.000294138 0
-0.0344758 -0.0916565 0
-0.0308735 -0.0803402 0
-0.027804 -0.0707325 0
-0.0250209 -0.0623838 0
-0.0223359 -0.0550324 0
-0.0199725 -0.0480841 0
-0.0179582 -0.0416764 0
-0.0162503 -0.0358207 0
-0.0147846 -0.0304777 0
-0.0134908 -0.0255987 0
-0.0122998 -0.0211433 0
-0.0111471 -0.0170854 0
-0.00997579 -0.0134146 0
-0.008739 -0.0101346 0
-0.00740406 -0.00726076 0
-0.00595834 -0.0048172 0
-0.00441714 -0.00283372 0
-0.00283313 -0.00134423 0
-0.00130695 -0.000386771 0
-0.0453658 -0.0986989 0
-0.0406117 -0.0869855 0
-0.0367677 -0.0769469 0
-0.0333246 -0.0680865 0
-0.0299446 -0.0602348 0
-0.0269594 -0.0528042 0
-0.0243516 -0.0459196 0
-0.0220935 -0.0395906 0
-0.020128 -0.0337865 0
-0.0183795 -0.0284662 0
-0.0167668 -0.0235936 0
-0.0152108 -0.0191436 0
-0.0136398 -0.0151052 0
-0.0119939 -0.0114809 0
-0.0102294 -0.0082855 0
-0.00832499 -0.0055446 0
-0.00628798 -0.00329382 0
-0.00416049 -0.0015793 0
-0.00202343 -0.000459495 0
-0.0564612 -0.102431 0
-0.0506267 -0.0906895 0
-0.0460625 -0.0805671 0
-0.0420195 -0.0715548 0
-0.0379347 -0.0634666 0
-0.0343141 -0.0557827 0
-0.0311129 -0.0486433 0
-0.0283036 -0.0420531 0
-0.0258306 -0.0359836 0
-0.0236143 -0.0303992 0
-0.0215639 -0.0252678 0
-0.0195877 -0.0205672 0
-0.0176006 -0.0162873 0
-0.0155294 -0.0124309 0
-0.0133185 -0.00901344 0
-0.0109347 -0.00606328 0
-0.00837254 -0.00362194 0
-0.0056566 -0.00174638 0
-0.00283982 -0.000510969 0
-0.0673724 -0.103004 0
-0.0605685 -0.091585 0
-0.0553576 -0.0816854 0
-0.0507771 -0.0728145 0
-0.0460475 -0.0647815 0
-0.0418093 -0.0570908 0
-0.0380305 -0.0499093 0
-0.0346838 -0.0432524 0
-0.0317125 -0.037097 0
-0.0290325 -0.0314125 0
-0.0265446 -0.0261718 0
-0.0241462 -0.021356 0
-0.0217398 -0.0169572 0
-0.0192395 -0.0129795 0
-0.0165764 -0.0094403 0
-0.0137034 -0.00637071 0
-0.0105987 -0.0038176 0
-0.00726463 -0.00184621 0
-0.00372178 -0.00054177 0
-0.0777713 -0.100916 0
-0.0701384 -0.0900765 0
-0.0643886 -0.080622 0
-0.0593299 -0.0721019 0
-0.0540317 -0.0643359 0
-0.049229 -0.056849 0
-0.0449101 -0.0498185 0
-0.0410558 -0.0432709 0
-0.0376096 -0.0371913 0
-0.0344835 -0.0315559 0
-0.0315714 -0.0263431 0
-0.028761 -0.0215381 0
-0.0259435 -0.0171359 0
-0.0230204 -0.013143 0
-0.0199092 -0.00957858 0
-0.0165475 -0.00647665 0
-0.0128948 -0.00388798 0
-0.00892908 -0.00188317 0
-0.00463669 -0.000553477 0
-0.0874553 -0.0966586 0
-0.079155 -0.0865443 0
-0.0729752 -0.0776877 0
-0.0675045 -0.0696704 0
-0.0616974 -0.0623345 0
-0.0563884 -0.0552216 0
-0.0515807 -0.0485051 0
-0.0472615 -0.042219 0
-0.0433754 -0.036357 0
-0.039832 -0.0309028 0
-0.0365192 -0.0258408 0
-0.0333166 -0.0211609 0
-0.0301051 -0.0168613 0
-0.0267742 -0.012951 0
-0.0232279 -0.00945133 0
-0.0193876 -0.00639815 0
-0.0151935 -0.00384456 0
-0.0105984 -0.00186354 0
-0.00555485 -0.000548151 0
-0.0962756 -0.0904246 0
-0.0874655 -0.081212 0
-0.0809573 -0.0731099 0
-0.0751355 -0.0657524 0
-0.0688821 -0.0589952 0
-0.0631347 -0.0523936 0
-0.0578984 -0.0461226 0
-0.0531655 -0.040224 0
-0.0488829 -0.0346997 0
-0.0449586 -0.0295407 0
-0.0412764 -0.024737 0
-0.0377088 -0.0202831 0
-0.0341277 -0.0161808 0
-0.0304115 -0.0124413 0
-0.0264506 -0.00908735 0
-0.0221511 -0.00615603 0
-0.0174336 -0.00370084 0
-0.0122264 -0.00179442 0
-0.00645008 -0.000528019 0
-0.104115 -0.0826964 0
-0.0949456 -0.0744914 0
-0.088203 -0.0672427 0
-0.0820935 -0.060641 0
-0.0754677 -0.0545477 0
-0.0693511 -0.0485532 0
-0.0637483 -0.0428285 0
-0.0586564 -0.0374185 0
-0.0540247 -0.0323311 0
-0.0497611 -0.0275629 0
-0.045746 -0.0231093 0
-0.0418462 -0.0189689 0
-0.0379256 -0.0151463 0
-0.0338524 -0.0116547 0
-0.0295047 -0.00851777 0
-0.0247735 -0.0057724 0
-0.0195611 -0.00347085 0
-0.0137729 -0.00168297 0
-0.00729989 -0.000495299 0
-0.110909 -0.0737793 0
-0.101518 -0.0666436 0
-0.0946309 -0.0603231 0
-0.0883019 -0.0545447 0
-0.0813737 -0.0491857 0
-0.0749503 -0.0438734 0
-0.0690402 -0.0387732 0
-0.0636438 -0.0339319 0
-0.0587124 -0.0293613 0
-0.0541536 -0.0250629 0
-0.0498455 -0.021036 0
-0.0456502 -0.0172828 0
-0.0414247 -0.0138102 0
-0.037028 -0.0106326 0
-0.0323271 -0.00777372 0
-0.0271992 -0.00526916 0
-0.0215298 -0.00316828 0
-0.0152036 -0.00153608 0
-0.00808536 -0.000452083 0
-0.116642 -0.0638977 0
-0.107132 -0.0578766 0
-0.100169 -0.0525349 0
-0.0936842 -0.0476435 0
-0.0865274 -0.0430799 0
-0.0798619 -0.0385101 0
-0.0737032 -0.0340955 0
-0.0680561 -0.0298854 0
-0.0628743 -0.0258954 0
-0.0580656 -0.0221301 0
-0.0535064 -0.0185927 0
-0.0490549 -0.0152875 0
-0.0445621 -0.0122232 0
-0.0398796 -0.00941476 0
-0.0348641 -0.00688501 0
-0.0293809 -0.00466704 0
-0.0233007 -0.00280593 0
-0.01649 -0.00136012 0
-0.00879089 -0.000400282 0
-0.121324 -0.0534062 0
-0.111773 -0.0484995 0
-0.104783 -0.0441377 0
-0.0981987 -0.0401413 0
-0.0908811 -0.0363951 0
-0.0840343 -0.032606 0
-0.0776829 -0.0289217 0
-0.0718373 -0.0253906 0
-0.0664537 -0.0220301 0
-0.0614405 -0.0188481 0
-0.0566728 -0.0158497 0
-0.052006 -0.0130415 0
-0.0472863 -0.0104328 0
-0.0423587 -0.00803841 0
-0.0370716 -0.00587933 0
-0.03128 -0.00398518 0
-0.0248421 -0.00239553 0
-0.017609 -0.00116087 0
-0.00940393 -0.000341618 0
-0.12497 -0.0424664 0
-0.115443 -0.0386639 0
-0.108472 -0.0352813 0
-0.101832 -0.0321837 0
-0.0944064 -0.0292727 0
-0.0874317 -0.0262898 0
-0.0809398 -0.0233666 0
-0.0749455 -0.0205485 0
-0.0694072 -0.0178541 0
-0.0642342 -0.015293 0
-0.0593009 -0.012872 0
-0.0544606 -0.0105987 0
-0.0495559 -0.00848278 0
-0.0444264 -0.00653764 0
-0.038914 -0.00478196 0
-0.0328653 -0.00324096 0
-0.0261285 -0.00194763 0
-0.0185423 -0.0009435 0
-0.00991462 -0.000277618 0
-0.127615 -0.0312295 0
-0.118153 -0.0285107 0
-0.111232 -0.026103 0
-0.104569 -0.0239067 0
-0.0970832 -0.0218389 0
-0.0900305 -0.0196761 0
-0.0834468 -0.0175326 0
-0.0773507 -0.0154503 0
-0.0717029 -0.0134474 0
-0.0664137 -0.0115343 0
-0.0613574 -0.00971878 0
-0.0563858 -0.00800856 0
-0.0513389 -0.00641288 0
-0.0460526 -0.00494349 0
-0.0403639 -0.00361584 0
-0.034113 -0.00245004 0
-0.0271405 -0.00147173 0
-0.0192758 -0.000712605 0
-0.0103155 -0.000209635 0
-0.129295 -0.0198667 0
-0.11992 -0.0181973 0
-0.113067 -0.0167486 0
-0.106412 -0.0154393 0
-0.0989069 -0.0142066 0
-0.0918194 -0.0128661 0
-0.0851878 -0.0115115 0
-0.0790335 -0.010178 0
-0.0733192 -0.00888249 0
-0.067956 -0.0076351 0
-0.0628184 -0.00644371 0
-0.0577576 -0.00531578 0
-0.0526122 -0.00425944 0
-0.0472155 -0.00328421 0
-0.0414013 -0.00240178 0
-0.0350056 -0.00162657 0
-0.0278639 -0.000976312 0
-0.0197995 -0.000472304 0
-0.0106013 -0.000138873 0
-0.130038 -0.00844548 0
-0.120763 -0.00780645 0
-0.11399 -0.0073028 0
-0.10737 -0.00687241 0
-0.0998799 -0.00646879 0
-0.0927949 -0.00594859 0
-0.0861552 -0.00538475 0
-0.0799833 -0.00480546 0
-0.0742431 -0.00422506 0
-0.0688466 -0.00365282 0
-0.0636687 -0.0030961 0
-0.0585607 -0.00256156 0
-0.0533605 -0.00205578 0
-0.0479005 -0.00158568 0
-0.0420128 -0.00115878 0
-0.0355316 -0.000783459 0
-0.0282896 -0.000469121 0
-0.0201069 -0.000226311 0
-0.0107685 -6.64121e-05 0
-0.129869 0.00293096 0
-0.120701 0.00256634 0
-0.11401 0.00214321 0
-0.107451 0.00170763 0
-0.100007 0.00129104 0
-0.0929589 0.000996852 0
-0.0863479 0.000773259 0
-0.0801967 0.000599511 0
-0.0744696 0.00046414 0
-0.0690793 0.000359199 0
-0.0639013 0.00027826 0
-0.0587874 0.000215807 0
-0.0535761 0.00016706 0
-0.0481002 0.00012799 0
-0.0421918 9.54492e-05 0
-0.035685 6.73273e-05 0
-0.0284128 4.2708e-05 0
-0.0201948 2.19662e-05 0
-0.0108155 6.77194e-06 0
-0.12881 0.0141931 0
-0.11975 0.0128417 0
-0.113148 0.0115051 0
-0.106666 0.0102182 0
-0.099296 0.00899375 0
-0.0923181 0.00789537 0
-0.085771 0.00689279 0
-0.0796771 0.00597302 0
-0.0740007 0.00512771 0
-0.0686549 0.00435044 0
-0.0635161 0.0036359 0
-0.0584374 0.00297989 0
-0.0532584 0.00237958 0
-0.0478137 0.00183389 0
-0.0419373 0.00134412 0
-0.0354653 0.000914437 0
-0.028233 0.000552416 0
-0.0200628 0.0002693 0
-0.0107423 7.97468e-05 0
-0.126869 0.0252829 0
-0.117919 0.0229525 0
-0.111414 0.0207111 0
-0.105028 0.0185831 0
-0.0977602 0.0165632 0
-0.0908837 0.0146743 0
-0.0844347 0.012906 0
-0.078434 0.0112529 0
-0.0728451 0.00970971 0
-0.0675815 0.0082716 0
-0.0625207 0.00693437 0
-0.0575173 0.00569512 0
-0.0524135 0.00455292 0
-0.0470467 0.00350961 0
-0.0412544 0.0025708 0
-0.0348768 0.00174678 0
-0.0277539 0.00105341 0
-0.0197137 0.000512548 0
-0.0105503 0.000151611 0
-0.124052 0.0361054 0
-0.115222 0.0328124 0
-0.108823 0.0296797 0
-0.102552 0.0267226 0
-0.0954145 0.0239226 0
-0.0886713 0.0212603 0
-0.0823546 0.0187444 0
-0.0764828 0.0163763 0
-0.0710181 0.0141537 0
-0.065874 0.012073 0
-0.0609293 0.0101309 0
-0.0560409 0.00832568 0
-0.0510544 0.00665806 0
-0.0458112 0.0051326 0
-0.040154 0.00375894 0
-0.033929 0.00255318 0
-0.0269832 0.00153903 0
-0.019153 0.000748551 0
-0.0102426 0.000221465 0
-0.120361 0.0466112 0
-0.111669 0.0423533 0
-0.105385 0.038333 0
-0.0992505 0.0345558 0
-0.0922764 0.0309907 0
-0.0857009 0.0275759 0
-0.0795522 0.0243358 0
-0.0738457 0.0212775 0
-0.0685419 0.0184008 0
-0.0635545 0.015703 0
-0.0587637 0.0131812 0
-0.0540293 0.0108344 0
-0.0492011 0.00866491 0
-0.0441259 0.00667946 0
-0.038653 0.00489139 0
-0.0326365 0.00332203 0
-0.0259328 0.00200237 0
-0.0183894 0.000974012 0
-0.00982382 0.000288366 0
-0.115788 0.0566695 0
-0.107262 0.0514465 0
-0.101115 0.0465491 0
-0.0951443 0.0419765 0
-0.0883694 0.0376731 0
-0.0819987 0.0335347 0
-0.0760555 0.0296015 0
-0.0705518 0.0258854 0
-0.0654464 0.0223879 0
-0.0606529 0.0191063 0
-0.0560533 0.0160379 0
-0.051511 0.0131819 0
-0.0468807 0.0105415 0
-0.0420161 0.00812533 0
-0.0367743 0.00594984 0
-0.0310194 0.00404092 0
-0.0246191 0.00243601 0
-0.0174347 0.00118539 0
-0.00930028 0.000351298 0
-0.110335 0.066148 0
-0.102009 0.0599661 0
-0.0960395 0.0542057 0
-0.0902699 0.0488679 0
-0.0837279 0.0438626 0
-0.0775999 0.0390395 0
-0.0719012 0.0344536 0
-0.066639 0.0301216 0
-0.0617698 0.0260457 0
-0.0572073 0.0222227 0
-0.0528357 0.0186496 0
-0.0485225 0.0153252 0
-0.0441283 0.0122531 0
-0.0395144 0.00944321 0
-0.0345478 0.00691439 0
-0.0291035 0.00469629 0
-0.023063 0.00283182 0
-0.0163039 0.00137876 0
-0.00868016 0.000409134 0
-0.104 0.0749375 0
-0.0959217 0.0677994 0
-0.0901814 0.0611912 0
-0.0846615 0.0551106 0
-0.0783937 0.0494406 0
-0.0725498 0.0439811 0
-0.0671364 0.0387943 0
-0.0621551 0.0338993 0
-0.0575602 0.0292979 0
-0.0532656 0.0249863 0
-0.0491577 0.0209601 0
-0.045109 0.0172175 0
-0.0409869 0.0137617 0
-0.0366613 0.0106034 0
-0.03201 0.0077631 0
-0.0269209 0.00527313 0
-0.0212909 0.00318071 0
-0.0150161 0.00154976 0
-0.00797367 0.0004606 0
-0.0968041 0.0827658 0
-0.0890431 0.0747221 0
-0.0835824 0.06732 0
-0.0783645 0.0605465 0
-0.0724218 0.0542706 0
-0.0669068 0.0482381 0
-0.0618204 0.0425153 0
-0.0571597 0.0371223 0
-0.0528768 0.0320606 0
-0.0488857 0.0273245 0
-0.045076 0.0229079 0
-0.0413252 0.0188074 0
-0.0375084 0.0150257 0
-0.0335053 0.0115734 0
-0.0292053 0.00847171 0
-0.0245104 0.00575472 0
-0.0193344 0.00347249 0
-0.0135944 0.00169337 0
-0.00719338 0.000504221 0
-0.0888009 0.0894558 0
-0.081443 0.0805527 0
-0.0763174 0.0724202 0
-0.0714491 0.0650203 0
-0.0658851 0.0582075 0
-0.0607434 0.0516776 0
-0.0560258 0.045497 0
-0.0517252 0.0396853 0
-0.0477911 0.0342418 0
-0.0441378 0.0291583 0
-0.0406582 0.024426 0
-0.037236 0.0200395 0
-0.0337545 0.0160001 0
-0.0301039 0.0123177 0
-0.026186 0.00901361 0
-0.021918 0.00612252 0
-0.0172317 0.0036957 0
-0.0120666 0.00180393 0
-0.00635445 0.000538294 0
-0.080047 0.0947498 0
-0.0731986 0.0850415 0
-0.068487 0.0762643 0
-0.0640022 0.0683453 0
-0.0588682 0.0610852 0
-0.0541469 0.0541504 0
-0.0498412 0.0476078 0
-0.0459397 0.0414738 0
-0.0423891 0.0357433 0
-0.0391049 0.0304042 0
-0.0359841 0.0254441 0
-0.0329172 0.0208552 0
-0.0297966 0.0166371 0
-0.0265235 0.0127986 0
-0.023013 0.0093603 0
-0.0191974 0.00635639 0
-0.0150272 0.00383771 0
-0.0104656 0.00187503 0
-0.00547501 0.000560866 0
-0.0706661 0.0982197 0
-0.0644445 0.0878459 0
-0.0602444 0.0785654 0
-0.0561737 0.0702784 0
-0.0514903 0.0627062 0
-0.0472294 0.05549 0
-0.0433762 0.0487063 0
-0.0399095 0.0423677 0
-0.0367733 0.0364636 0
-0.0338847 0.0309767 0
-0.0311461 0.0258908 0
-0.0284559 0.0211955 0
-0.0257164 0.0168886 0
-0.0228403 0.0129778 0
-0.0197555 0.00948246 0
-0.0164099 0.00643531 0
-0.0127723 0.00388501 0
-0.00882973 0.00189968 0
-0.0045764 0.000569723 0
-0.0608389 0.0996932 0
-0.0553943 0.0888348 0
-0.0517578 0.0792109 0
-0.0481218 0.0706388 0
-0.0438991 0.0628747 0
-0.0401324 0.055526 0
-0.0367658 0.0486508 0
-0.0337623 0.0422498 0
-0.0310633 0.0363051 0
-0.0285894 0.0307944 0
-0.0262493 0.0256985 0
-0.0239504 0.0210047 0
-0.0216055 0.0167093 0
-0.0191388 0.012819 0
-0.0164911 0.00935203 0
-0.0136244 0.00633875 0
-0.010525 0.00382404 0
-0.00720257 0.00187057 0
-0.00368337 0.000562465 0
-0.0508804 0.0988339 0
-0.0463427 0.0877646 0
-0.043184 0.0779778 0
-0.0399497 0.0692115 0
-0.0362589 0.0614021 0
-0.0330265 0.0541055 0
-0.0301694 0.0473169 0
-0.0276449 0.0410175 0
-0.0253951 0.0351829 0
-0.0233448 0.0297878 0
-0.0214104 0.0248103 0
-0.0195088 0.0202364 0
-0.0175638 0.0160616 0
-0.0155112 0.0122923 0
-0.0133036 0.00894548 0
-0.0109157 0.00604897 0
-0.0083488 0.00364258 0
-0.00563279 0.00178074 0
-0.00282393 0.000536635 0
-0.0411926 0.0951872 0
-0.037552 0.0841451 0
-0.0347017 0.0744108 0
-0.0318544 0.0657222 0
-0.0287893 0.0581401 0
-0.0261089 0.0511219 0
-0.0237632 0.0446155 0
-0.021718 0.0385957 0
-0.0199165 0.0330359 0
-0.0182874 0.0279078 0
-0.0167549 0.0231877 0
-0.0152466 0.0188606 0
-0.0136976 0.0149223 0
-0.0120548 0.0113794 0
-0.0102815 0.00824834 0
-0.0083627 0.00555458 0
-0.00631115 0.00333205 0
-0.00417261 0.00162466 0
-0.00202883 0.000490019 0
-0.0319186 0.0881747 0
-0.0291383 0.0774309 0
-0.0266217 0.0681833 0
-0.0242003 0.0600942 0
-0.0217354 0.053055 0
-0.0195736 0.046528 0
-0.0177238 0.0404981 0
-0.0161475 0.0349446 0
-0.0147825 0.0298349 0
-0.0135603 0.0251353 0
-0.0124142 0.0208194 0
-0.0112835 0.016872 0
-0.0101155 0.0132897 0
-0.00886808 0.0100805 0
-0.00751356 0.00726122 0
-0.00604427 0.00485531 0
-0.00447981 0.00289089 0
-0.00287533 0.00140013 0
-0.00133027 0.000421159 0
-0.0232012 0.077694 0
-0.0213284 0.0679578 0
-0.0193054 0.059701 0
-0.017237 0.0524925 0
-0.0152533 0.0461447 0
-0.013587 0.0402953 0
-0.0122265 0.0349482 0
-0.0111049 0.0300629 0
-0.0101532 0.0255905 0
-0.00930989 0.0214891 0
-0.00852079 0.0177297 0
-0.00773895 0.0142977 0
-0.00692453 0.011192 0
-0.00604613 0.00842235 0
-0.00508374 0.00600693 0
-0.00403391 0.00396823 0
-0.00291761 0.0023294 0
-0.00179096 0.00111115 0
-0.000759519 0.000330317 0
-0.0154035 0.0636635 0
-0.0144479 0.0556736 0
-0.0129111 0.0488041 0
-0.0110374 0.0427038 0
-0.00949424 0.0372935 0
-0.00834638 0.0323953 0
-0.00747165 0.0279878 0
-0.00677544 0.0239979 0
-0.00619498 0.0203614 0
-0.00568425 0.0170325 0
-0.00520598 0.0139837 0
-0.00472865 0.0112034 0
-0.00422558 0.00869303 0
-0.00367561 0.00646487 0
-0.00306521 0.00453824 0
-0.00239258 0.00293546 0
-0.00167481 0.00167638 0
-0.000959436 0.000772498 0
-0.000342707 0.000221334 0
-0.00878497 0.0461405 0
-0.00861184 0.040374 0
-0.00751861 0.0351035 0
-0.00585054 0.0304561 0
-0.00476985 0.0264354 0
-0.00413927 0.0228786 0
-0.00370103 0.0197131 0
-0.00336079 0.0168578 0
-0.00307901 0.0142563 0
-0.00283136 0.0118726 0
-0.00259847 0.00968734 0
-0.0023636 0.00769376 0
-0.00211219 0.00589609 0