<?xml version="1.0"?>
<VTKFile type="UnstructuredGrid">
  <UnstructuredGrid>
  <Piece NumberOfPoints="3321"  NumberOfCells="1600">
    <Points>
      <DataArray type="Float64" NumberOfComponents="3" format="ascii">
0 0 0.1
1 0 0.1
1 0.5 0.1
0 0.5 0.1
0.025 0 0.1
0.05 0 0.1
0.075 0 0.1
0.1 0 0.1
0.125 0 0.1
0.15 0 0.1
0.175 0 0.1
0.2 0 0.1
0.225 0 0.1
0.25 0 0.1
0.275 0 0.1
0.3 0 0.1
0.325 0 0.1
0.35 0 0.1
0.375 0 0.1
0.4 0 0.1
0.425 0 0.1
0.45 0 0.1
0.475 0 0.1
0.5 0 0.1
0.525 0 0.1
0.55 0 0.1
0.575 0 0.1
0.6 0 0.1
0.625 0 0.1
0.65 0 0.1
0.675 0 0.1
0.7 0 0.1
0.725 0 0.1
0.75 0 0.1
0.775 0 0.1
0.8 0 0.1
0.825 0 0.1
0.85 0 0.1
0.875 0 0.1
0.9 0 0.1
0.925 0 0.1
0.95 0 0.1
0.975 0 0.1
0.0125 0 0.1
0.0375 0 0.1
0.0625 0 0.1
0.0875 0 0.1
0.1125 0 0.1
0.1375 0 0.1
0.1625 0 0.1
0.1875 0 0.1
0.2125 0 0.1
0.2375 0 0.1
0.2625 0 0.1
0.2875 0 0.1
0.3125 0 0.1
0.3375 0 0.1
0.3625 0 0.1
0.3875 0 0.1
0.4125 0 0.1
0.4375 0 0.1
0.4625 0 0.1
0.4875 0 0.1
0.5125 0 0.1
0.5375 0 0.1
0.5625 0 0.1
0.5875 0 0.1
0.6125 0 0.1
0.6375 0 0.1
0.6625 0 0.1
0.6875 0 0.1
0.7125 0 0.1
0.7375 0 0.1
0.7625 0 0.1
0.7875 0 0.1
0.8125 0 0.1
0.8375 0 0.1
0.8625 0 0.1
0.8875 0 0.1
0.9125 0 0.1
0.9375 0 0.1
0.9625 0 0.1
0.9875 0 0.1
1 0.025 0.1
1 0.05 0.1
1 0.075 0.1
1 0.1 0.1
1 0.125 0.1
1 0.15 0.1
1 0.175 0.1
1 0.2 0.1
1 0.225 0.1
1 0.25 0.1
1 0.275 0.1
1 0.3 0.1
1 0.325 0.1
1 0.35 0.1
1 0.375 0.1
1 0.4 0.1
1 0.425 0.1
1 0.45 0.1
1 0.475 0.1
1 0.0125 0.1
1 0.0375 0.1
1 0.0625 0.1
1 0.0875 0.1
1 0.1125 0.1
1 0.1375 0.1
1 0.1625 0.1
1 0.1875 0.1
1 0.2125 0.1
1 0.2375 0.1
1 0.2625 0.1
1 0.2875 0.1
1 0.3125 0.1
1 0.3375 0.1
1 0.3625 0.1
1 0.3875 0.1
1 0.4125 0.1
1 0.4375 0.1
1 0.4625 0.1
1 0.4875 0.1
0.975 0.5 0.1
0.95 0.5 0.1
0.925 0.5 0.1
0.9 0.5 0.1
0.875 0.5 0.1
0.85 0.5 0.1
0.825 0.5 0.1
0.8 0.5 0.1
0.775 0.5 0.1
0.75 0.5 0.1
0.725 0.5 0.1
0.7 0.5 0.1
0.675 0.5 0.1
0.65 0.5 0.1
0.625 0.5 0.1
0.6 0.5 0.1
0.575 0.5 0.1
0.55 0.5 0.1
0.525 0.5 0.1
0.5 0.5 0.1
0.475 0.5 0.1
0.45 0.5 0.1
0.425 0.5 0.1
0.4 0.5 0.1
0.375 0.5 0.1
0.35 0.5 0.1
0.325 0.5 0.1
0.3 0.5 0.1
0.275 0.5 0.1
0.25 0.5 0.1
0.225 0.5 0.1
0.2 0.5 0.1
0.175 0.5 0.1
0.15 0.5 0.1
0.125 0.5 0.1
0.1 0.5 0.1
0.075 0.5 0.1
0.05 0.5 0.1
0.025 0.5 0.1
0.9875 0.5 0.1
0.9625 0.5 0.1
0.9375 0.5 0.1
0.9125 0.5 0.1
0.8875 0.5 0.1
0.8625 0.5 0.1
0.8375 0.5 0.1
0.8125 0.5 0.1
0.7875 0.5 0.1
0.7625 0.5 0.1
0.7375 0.5 0.1
0.7125 0.5 0.1
0.6875 0.5 0.1
0.6625 0.5 0.1
0.6375 0.5 0.1
0.6125 0.5 0.1
0.5875 0.5 0.1
0.5625 0.5 0.1
0.5375 0.5 0.1
0.5125 0.5 0.1
0.4875 0.5 0.1
0.4625 0.5 0.1
0.4375 0.5 0.1
0.4125 0.5 0.1
0.3875 0.5 0.1
0.3625 0.5 0.1
0.3375 0.5 0.1
0.3125 0.5 0.1
0.2875 0.5 0.1
0.2625 0.5 0.1
0.2375 0.5 0.1
0.2125 0.5 0.1
0.1875 0.5 0.1
0.1625 0.5 0.1
0.1375 0.5 0.1
0.1125 0.5 0.1
0.0875 0.5 0.1
0.0625 0.5 0.1
0.0375 0.5 0.1
0.0125 0.5 0.1
0 0.475 0.1
0 0.45 0.1
0 0.425 0.1
0 0.4 0.1
0 0.375 0.1
0 0.35 0.1
0 0.325 0.1
0 0.3 0.1
0 0.275 0.1
0 0.25 0.1
0 0.225 0.1
0 0.2 0.1
0 0.175 0.1
0 0.15 0.1
0 0.125 0.1
0 0.1 0.1
0 0.075 0.1
0 0.05 0.1
0 0.025 0.1
0 0.4875 0.1
0 0.4625 0.1
0 0.4375 0.1
0 0.4125 0.1
0 0.3875 0.1
0 0.3625 0.1
0 0.3375 0.1
0 0.3125 0.1
0 0.2875 0.1
0 0.2625 0.1
0 0.2375 0.1
0 0.2125 0.1
0 0.1875 0.1
0 0.1625 0.1
0 0.1375 0.1
0 0.1125 0.1
0 0.0875 0.1
0 0.0625 0.1
0 0.0375 0.1
0 0.0125 0.1
0.975 0.475 0.1
0.975 0.45 0.1
0.975 0.425 0.1
0.975 0.4 0.1
0.975 0.375 0.1
0.975 0.35 0.1
0.975 0.325 0.1
0.975 0.3 0.1
0.975 0.275 0.1
0.975 0.25 0.1
0.975 0.225 0.1
0.975 0.2 0.1
0.975 0.175 0.1
0.975 0.15 0.1
0.975 0.125 0.1
0.975 0.1 0.1
0.975 0.075 0.1
0.975 0.05 0.1
0.975 0.025 0.1
0.95 0.475 0.1
0.95 0.45 0.1
0.95 0.425 0.1
0.95 0.4 0.1
0.95 0.375 0.1
0.95 0.35 0.1
0.95 0.325 0.1
0.95 0.3 0.1
0.95 0.275 0.1
0.95 0.25 0.1
0.95 0.225 0.1
0.95 0.2 0.1
0.95 0.175 0.1
0.95 0.15 0.1
0.95 0.125 0.1
0.95 0.1 0.1
0.95 0.075 0.1
0.95 0.05 0.1
0.95 0.025 0.1
0.925 0.475 0.1
0.925 0.45 0.1
0.925 0.425 0.1
0.925 0.4 0.1
0.925 0.375 0.1
0.925 0.35 0.1
0.925 0.325 0.1
0.925 0.3 0.1
0.925 0.275 0.1
0.925 0.25 0.1
0.925 0.225 0.1
0.925 0.2 0.1
0.925 0.175 0.1
0.925 0.15 0.1
0.925 0.125 0.1
0.925 0.1 0.1
0.925 0.075 0.1
0.925 0.05 0.1
0.925 0.025 0.1
0.9 0.475 0.1
0.9 0.45 0.1
0.9 0.425 0.1
0.9 0.4 0.1
0.9 0.375 0.1
0.9 0.35 0.1
0.9 0.325 0.1
0.9 0.3 0.1
0.9 0.275 0.1
0.9 0.25 0.1
0.9 0.225 0.1
0.9 0.2 0.1
0.9 0.175 0.1
0.9 0.15 0.1
0.9 0.125 0.1
0.9 0.1 0.1
0.9 0.075 0.1
0.9 0.05 0.1
0.9 0.025 0.1
0.875 0.475 0.1
0.875 0.45 0.1
0.875 0.425 0.1
0.875 0.4 0.1
0.875 0.375 0.1
0.875 0.35 0.1
0.875 0.325 0.1
0.875 0.3 0.1
0.875 0.275 0.1
0.875 0.25 0.1
0.875 0.225 0.1
0.875 0.2 0.1
0.875 0.175 0.1
0.875 0.15 0.1
0.875 0.125 0.1
0.875 0.1 0.1
0.875 0.075 0.1
0.875 0.05 0.1
0.875 0.025 0.1
0.85 0.475 0.1
0.85 0.45 0.1
0.85 0.425 0.1
0.85 0.4 0.1
0.85 0.375 0.1
0.85 0.35 0.1
0.85 0.325 0.1
0.85 0.3 0.1
0.85 0.275 0.1
0.85 0.25 0.1
0.85 0.225 0.1
0.85 0.2 0.1
0.85 0.175 0.1
0.85 0.15 0.1
0.85 0.125 0.1
0.85 0.1 0.1
0.85 0.075 0.1
0.85 0.05 0.1
0.85 0.025 0.1
0.825 0.475 0.1
0.825 0.45 0.1
0.825 0.425 0.1
0.825 0.4 0.1
0.825 0.375 0.1
0.825 0.35 0.1
0.825 0.325 0.1
0.825 0.3 0.1
0.825 0.275 0.1
0.825 0.25 0.1
0.825 0.225 0.1
0.825 0.2 0.1
0.825 0.175 0.1
0.825 0.15 0.1
0.825 0.125 0.1
0.825 0.1 0.1
0.825 0.075 0.1
0.825 0.05 0.1
0.825 0.025 0.1
0.8 0.475 0.1
0.8 0.45 0.1
0.8 0.425 0.1
0.8 0.4 0.1
0.8 0.375 0.1
0.8 0.35 0.1
0.8 0.325 0.1
0.8 0.3 0.1
0.8 0.275 0.1
0.8 0.25 0.1
0.8 0.225 0.1
0.8 0.2 0.1
0.8 0.175 0.1
0.8 0.15 0.1
0.8 0.125 0.1
0.8 0.1 0.1
0.8 0.075 0.1
0.8 0.05 0.1
0.8 0.025 0.1
0.775 0.475 0.1
0.775 0.45 0.1
0.775 0.425 0.1
0.775 0.4 0.1
0.775 0.375 0.1
0.775 0.35 0.1
0.775 0.325 0.1
0.775 0.3 0.1
0.775 0.275 0.1
0.775 0.25 0.1
0.775 0.225 0.1
0.775 0.2 0.1
0.775 0.175 0.1
0.775 0.15 0.1
0.775 0.125 0.1
0.775 0.1 0.1
0.775 0.075 0.1
0.775 0.05 0.1
0.775 0.025 0.1
0.75 0.475 0.1
0.75 0.45 0.1
0.75 0.425 0.1
0.75 0.4 0.1
0.75 0.375 0.1
0.75 0.35 0.1
0.75 0.325 0.1
0.75 0.3 0.1
0.75 0.275 0.1
0.75 0.25 0.1
0.75 0.225 0.1
0.75 0.2 0.1
0.75 0.175 0.1
0.75 0.15 0.1
0.75 0.125 0.1
0.75 0.1 0.1
0.75 0.075 0.1
0.75 0.05 0.1
0.75 0.025 0.1
0.725 0.475 0.1
0.725 0.45 0.1
0.725 0.425 0.1
0.725 0.4 0.1
0.725 0.375 0.1
0.725 0.35 0.1
0.725 0.325 0.1
0.725 0.3 0.1
0.725 0.275 0.1
0.725 0.25 0.1
0.725 0.225 0.1
0.725 0.2 0.1
0.725 0.175 0.1
0.725 0.15 0.1
0.725 0.125 0.1
0.725 0.1 0.1
0.725 0.075 0.1
0.725 0.05 0.1
0.725 0.025 0.1
0.7 0.475 0.1
0.7 0.45 0.1
0.7 0.425 0.1
0.7 0.4 0.1
0.7 0.375 0.1
0.7 0.35 0.1
0.7 0.325 0.1
0.7 0.3 0.1
0.7 0.275 0.1
0.7 0.25 0.1
0.7 0.225 0.1
0.7 0.2 0.1
0.7 0.175 0.1
0.7 0.15 0.1
0.7 0.125 0.1
0.7 0.1 0.1
0.7 0.075 0.1
0.7 0.05 0.1
0.7 0.025 0.1
0.675 0.475 0.1
0.675 0.45 0.1
0.675 0.425 0.1
0.675 0.4 0.1
0.675 0.375 0.1
0.675 0.35 0.1
0.675 0.325 0.1
0.675 0.3 0.1
0.675 0.275 0.1
0.675 0.25 0.1
0.675 0.225 0.1
0.675 0.2 0.1
0.675 0.175 0.1
0.675 0.15 0.1
0.675 0.125 0.1
0.675 0.1 0.1
0.675 0.075 0.1
0.675 0.05 0.1
0.675 0.025 0.1
0.65 0.475 0.1
0.65 0.45 0.1
0.65 0.425 0.1
0.65 0.4 0.1
0.65 0.375 0.1
0.65 0.35 0.1
0.65 0.325 0.1
0.65 0.3 0.1
0.65 0.275 0.1
0.65 0.25 0.1
0.65 0.225 0.1
0.65 0.2 0.1
0.65 0.175 0.1
0.65 0.15 0.1
0.65 0.125 0.1
0.65 0.1 0.1
0.65 0.075 0.1
0.65 0.05 0.1
0.65 0.025 0.1
0.625 0.475 0.1
0.625 0.45 0.1
0.625 0.425 0.1
0.625 0.4 0.1
0.625 0.375 0.1
0.625 0.35 0.1
0.625 0.325 0.1
0.625 0.3 0.1
0.625 0.275 0.1
0.625 0.25 0.1
0.625 0.225 0.1
0.625 0.2 0.1
0.625 0.175 0.1
0.625 0.15 0.1
0.625 0.125 0.1
0.625 0.1 0.1
0.625 0.075 0.1
0.625 0.05 0.1
0.625 0.025 0.1
0.6 0.475 0.1
0.6 0.45 0.1
0.6 0.425 0.1
0.6 0.4 0.1
0.6 0.375 0.1
0.6 0.35 0.1
0.6 0.325 0.1
0.6 0.3 0.1
0.6 0.275 0.1
0.6 0.25 0.1
0.6 0.225 0.1
0.6 0.2 0.1
0.6 0.175 0.1
0.6 0.15 0.1
0.6 0.125 0.1
0.6 0.1 0.1
0.6 0.075 0.1
0.6 0.05 0.1
0.6 0.025 0.1
0.575 0.475 0.1
0.575 0.45 0.1
0.575 0.425 0.1
0.575 0.4 0.1
0.575 0.375 0.1
0.575 0.35 0.1
0.575 0.325 0.1
0.575 0.3 0.1
0.575 0.275 0.1
0.575 0.25 0.1
0.575 0.225 0.1
0.575 0.2 0.1
0.575 0.175 0.1
0.575 0.15 0.1
0.575 0.125 0.1
0.575 0.1 0.1
0.575 0.075 0.1
0.575 0.05 0.1
0.575 0.025 0.1
0.55 0.475 0.1
0.55 0.45 0.1
0.55 0.425 0.1
0.55 0.4 0.1
0.55 0.375 0.1
0.55 0.35 0.1
0.55 0.325 0.1
0.55 0.3 0.1
0.55 0.275 0.1
0.55 0.25 0.1
0.55 0.225 0.1
0.55 0.2 0.1
0.55 0.175 0.1
0.55 0.15 0.1
0.55 0.125 0.1
0.55 0.1 0.1
0.55 0.075 0.1
0.55 0.05 0.1
0.55 0.025 0.1
0.525 0.475 0.1
0.525 0.45 0.1
0.525 0.425 0.1
0.525 0.4 0.1
0.525 0.375 0.1
0.525 0.35 0.1
0.525 0.325 0.1
0.525 0.3 0.1
0.525 0.275 0.1
0.525 0.25 0.1
0.525 0.225 0.1
0.525 0.2 0.1
0.525 0.175 0.1
0.525 0.15 0.1
0.525 0.125 0.1
0.525 0.1 0.1
0.525 0.075 0.1
0.525 0.05 0.1
0.525 0.025 0.1
0.5 0.475 0.1
0.5 0.45 0.1
0.5 0.425 0.1
0.5 0.4 0.1
0.5 0.375 0.1
0.5 0.35 0.1
0.5 0.325 0.1
0.5 0.3 0.1
0.5 0.275 0.1
0.5 0.25 0.1
0.5 0.225 0.1
0.5 0.2 0.1
0.5 0.175 0.1
0.5 0.15 0.1
0.5 0.125 0.1
0.5 0.1 0.1
0.5 0.075 0.1
0.5 0.05 0.1
0.5 0.025 0.1
0.475 0.475 0.1
0.475 0.45 0.1
0.475 0.425 0.1
0.475 0.4 0.1
0.475 0.375 0.1
0.475 0.35 0.1
0.475 0.325 0.1
0.475 0.3 0.1
0.475 0.275 0.1
0.475 0.25 0.1
0.475 0.225 0.1
0.475 0.2 0.1
0.475 0.175 0.1
0.475 0.15 0.1
0.475 0.125 0.1
0.475 0.1 0.1
0.475 0.075 0.1
0.475 0.05 0.1
0.475 0.025 0.1
0.45 0.475 0.1
0.45 0.45 0.1
0.45 0.425 0.1
0.45 0.4 0.1
0.45 0.375 0.1
0.45 0.35 0.1
0.45 0.325 0.1
0.45 0.3 0.1
0.45 0.275 0.1
0.45 0.25 0.1
0.45 0.225 0.1
0.45 0.2 0.1
0.45 0.175 0.1
0.45 0.15 0.1
0.45 0.125 0.1
0.45 0.1 0.1
0.45 0.075 0.1
0.45 0.05 0.1
0.45 0.025 0.1
0.425 0.475 0.1
0.425 0.45 0.1
0.425 0.425 0.1
0.425 0.4 0.1
0.425 0.375 0.1
0.425 0.35 0.1
0.425 0.325 0.1
0.425 0.3 0.1
0.425 0.275 0.1
0.425 0.25 0.1
0.425 0.225 0.1
0.425 0.2 0.1
0.425 0.175 0.1
0.425 0.15 0.1
0.425 0.125 0.1
0.425 0.1 0.1
0.425 0.075 0.1
0.425 0.05 0.1
0.425 0.025 0.1
0.4 0.475 0.1
0.4 0.45 0.1
0.4 0.425 0.1
0.4 0.4 0.1
0.4 0.375 0.1
0.4 0.35 0.1
0.4 0.325 0.1
0.4 0.3 0.1
0.4 0.275 0.1
0.4 0.25 0.1
0.4 0.225 0.1
0.4 0.2 0.1
0.4 0.175 0.1
0.4 0.15 0.1
0.4 0.125 0.1
0.4 0.1 0.1
0.4 0.075 0.1
0.4 0.05 0.1
0.4 0.025 0.1
0.375 0.475 0.1
0.375 0.45 0.1
0.375 0.425 0.1
0.375 0.4 0.1
0.375 0.375 0.1
[...]
    <PointData>
      <DataArray type="Float64" NumberOfComponents="3" Name="Velocity" format="ascii">
0 0 0
0 0 0
0 0 0
0 0 0
0 0 0
0 0 0
0 0 0
0 0 0
0 0 0
0 0 0
0 0 0
0 0 0
0 0 0
0 0 0
0 0 0
0 0 0
0 0 0
0 0 0
0 0 0
0 0 0
0 0 0
0 0 0
0 0 0
0 0 0
0 0 0
0 0 0
0 0 0
0 0 0
0 0 0
0 0 0
0 0 0
0 0 0
0 0 0
0 0 0
0 0 0
0 0 0
0 0 0
0 0 0
0 0 0
0 0 0
0 0 0
0 0 0
0 0 0
0 0 0
0 0 0
0 0 0
0 0 0
0 0 0
0 0 0
0 0 0
0 0 0
0 0 0
0 0 0
0 0 0
0 0 0
0 0 0
0 0 0
0 0 0
0 0 0
0 0 0
0 0 0
0 0 0
0 0 0
0 0 0
0 0 0
0 0 0
0 0 0
0 0 0
0 0 0
0 0 0
0 0 0
0 0 0
0 0 0
0 0 0
0 0 0
0 0 0
0 0 0
0 0 0
0 0 0
0 0 0
0 0 0
0 0 0
0 0 0
0 0 0
0 0 0
0 0 0
0 0 0
0 0 0
0 0 0
0 0 0
0 0 0
0 0 0
0 0 0
0 0 0
0 0 0
0 0 0
0 0 0
0 0 0
0 0 0
0 0 0
0 0 0
0 0 0
0 0 0
0 0 0
0 0 0
0 0 0
0 0 0
0 0 0
0 0 0
0 0 0
0 0 0
0 0 0
0 0 0
0 0 0
0 0 0
0 0 0
0 0 0
0 0 0
0 0 0
0 0 0
0 0 0
0 0 0
-0.00283115 -0.0421768 0
-0.00996366 -0.0774249 0
-0.0204342 -0.10662 0
-0.0325648 -0.130359 0
-0.0464191 -0.148831 0
-0.0615765 -0.161638 0
-0.0766859 -0.169398 0
-0.0915722 -0.172246 0
-0.105906 -0.170609 0
-0.119078 -0.165325 0
-0.131013 -0.156441 0
-0.141541 -0.144597 0
-0.150539 -0.130122 0
-0.158213 -0.113458 0
-0.164484 -0.0954094 0
-0.16926 -0.0760272 0
-0.172698 -0.0558121 0
-0.174707 -0.0351664 0
-0.175407 -0.0143014 0
-0.174876 0.00622226 0
-0.173125 0.0264235 0
-0.170236 0.046252 0
-0.16618 0.0652935 0
-0.160893 0.0834838 0
-0.154447 0.100511 0
-0.146843 0.116093 0
-0.138141 0.130141 0
-0.128406 0.142091 0
-0.117589 0.151704 0
-0.105851 0.158674 0
-0.0933846 0.162539 0
-0.0801986 0.163212 0
-0.066714 0.160082 0
-0.0534432 0.152583 0
-0.0408107 0.140007 0
-0.0288477 0.121955 0
-0.0181529 0.0987019 0
-0.00920679 0.0702092 0
-0.00312553 0.0363062 0
-0.0012429 -0.0205866 0
-0.00592178 -0.0605902 0
-0.0149859 -0.0927644 0
-0.0263531 -0.119215 0
-0.0393497 -0.140335 0
-0.0540306 -0.156033 0
-0.0692335 -0.166285 0
-0.084255 -0.171596 0
-0.0989383 -0.172115 0
-0.112711 -0.168622 0
-0.125262 -0.161466 0
-0.136507 -0.15101 0
-0.146266 -0.137834 0
-0.154578 -0.12216 0
-0.16157 -0.104744 0
-0.16708 -0.0860205 0
-0.171187 -0.0661345 0
-0.173917 -0.0457066 0
-0.175253 -0.0248776 0
-0.175319 -0.00407647 0
-0.174163 0.016298 0
-0.171831 0.03638 0
-0.168363 0.0558552 0
-0.163682 0.0745016 0
-0.157802 0.0921858 0
-0.150771 0.108509 0
-0.142595 0.123391 0
-0.133373 0.136444 0
-0.123084 0.14725 0
-0.111772 0.155618 0
-0.099673 0.161043 0
-0.0868246 0.163331 0
-0.073427 0.162193 0
-0.0600079 0.156942 0
-0.0470391 0.147029 0
-0.0346786 0.131689 0
-0.0232843 0.111013 0
-0.0133682 0.0851697 0
-0.00569343 0.054028 0
-0.00294134 0.0170343 0
0 0 0
0 0 0
0 0 0
0 0 0
0 0 0
0 0 0
0 0 0
0 0 0
0 0 0
0 0 0
0 0 0
0 0 0
0 0 0
0 0 0
0 0 0
0 0 0
0 0 0
0 0 0
0 0 0
0 0 0
0 0 0
0 0 0
0 0 0
0 0 0
0 0 0
0 0 0
0 0 0
0 0 0
0 0 0
0 0 0
0 0 0
0 0 0
0 0 0
0 0 0
0 0 0
0 0 0
0 0 0
0 0 0
0 0 0
-0.00446842 -0.0361605 0
-0.00439749 -0.0311942 0
-0.00378585 -0.0262575 0
-0.00249739 -0.0222871 0
-0.00187906 -0.0193908 0
-0.00163348 -0.0167427 0
-0.00148542 -0.01427 0
-0.0013603 -0.0119782 0
-0.00124022 -0.00987177 0
-0.00112051 -0.0079525 0
-0.000999174 -0.00622229 0
-0.000874541 -0.00468465 0
-0.000744879 -0.00334566 0
-0.000608697 -0.00221421 0
-0.000465524 -0.00130146 0
-0.000317475 -0.000619536 0
-0.000170626 -0.000179263 0
-2.89201e-05 2.53176e-05 0
6.02398e-05 5.24356e-05 0
-0.0107761 -0.0666643 0
-0.0107041 -0.0579806 0
-0.00964968 -0.0503781 0
-0.00759307 -0.0437641 0
-0.00628872 -0.0380509 0
-0.00559109 -0.0327862 0
-0.00509 -0.0279729 0
-0.00465266 -0.0235712 0
-0.00423812 -0.0195543 0
-0.00383119 -0.0159072 0
-0.00342363 -0.0126232 0
-0.00300884 -0.00970207 0
-0.00258087 -0.00714964 0
-0.00213482 -0.00497621 0
-0.00166868 -0.00319501 0
-0.00118662 -0.00181888 0
-0.000704741 -0.000853266 0
-0.000264444 -0.00028004 0
3.24376e-05 -3.71031e-05 0
-0.0197578 -0.0927761 0
-0.019027 -0.0814281 0
-0.0174259 -0.071572 0
-0.0149862 -0.0628669 0
-0.013108 -0.0549408 0
-0.011778 -0.047477 0
-0.0107134 -0.0406303 0
-0.00977295 -0.0343803 0
-0.00889238 -0.0286873 0
-0.00803918 -0.0235222 0
-0.0071934 -0.0188685 0
-0.00634006 -0.0147198 0
-0.00546678 -0.0110779 0
-0.00456431 -0.00795008 0
-0.00362922 -0.00534681 0
-0.00266956 -0.00327747 0
-0.00171521 -0.00174356 0
-0.000837011 -0.0007283 0
-0.000177965 -0.000184473 0
-0.0309847 -0.114252 0
-0.0293654 -0.101004 0
-0.0270879 -0.0893515 0
-0.0242498 -0.0789297 0
-0.0218694 -0.0693629 0
-0.0198322 -0.0602451 0
-0.0180746 -0.0517914 0
-0.0164899 -0.0440298 0
-0.0150053 -0.0369381 0
-0.0135738 -0.0304896 0
-0.0121634 -0.0246653 0
-0.0107496 -0.019455 0
-0.00931287 -0.0148564 0
-0.00783922 -0.010873 0
-0.0063237 -0.00751184 0
-0.00477759 -0.00477993 0
-0.00324065 -0.0026799 0
-0.00180095 -0.00120426 0
-0.000624625 -0.000328399 0
-0.0438622 -0.130985 0
-0.0412848 -0.116473 0
-0.0383416 -0.103557 0
-0.0350027 -0.0918124 0
-0.0320383 -0.0810759 0
-0.0292949 -0.0707841 0
-0.0268036 -0.0611454 0
-0.0245007 -0.0522273 0
-0.022323 -0.044035 0
-0.02022 -0.0365553 0
-0.0181523 -0.0297739 0
-0.0160879 -0.023681 0
-0.0140007 -0.0182724 0
-0.011872 -0.0135496 0
-0.00969429 -0.00951788 0
-0.00747908 -0.0061851 0
-0.00526929 -0.00355989 0
-0.00315742 -0.0016505 0
-0.00131059 -0.00046385 0
-0.0577546 -0.143015 0
-0.0542208 -0.127849 0
-0.0506984 -0.11421 0
-0.0468485 -0.10164 0
-0.0431958 -0.0900896 0
-0.0397588 -0.0789819 0
-0.0365341 -0.0685198 0
-0.0334868 -0.0587793 0
-0.0305714 -0.0497826 0
-0.0277429 -0.0415296 0
-0.0249602 -0.0340135 0
-0.0221869 -0.027228 0
-0.0193919 -0.0211701 0
-0.0165517 -0.0158414 0
-0.0136547 -0.0112485 0
-0.0107086 -0.00740305 0
-0.00775174 -0.00432352 0
-0.00486829 -0.00203704 0
-0.00220701 -0.000581929 0
-0.0720486 -0.150504 0
-0.067659 -0.13518 0
-0.0636333 -0.121285 0
-0.0593466 -0.108376 0
-0.0550109 -0.0963808 0
-0.0508812 -0.0847894 0
-0.0469321 -0.073829 0
-0.043141 -0.0635755 0
-0.0394768 -0.0540583 0
-0.0359022 -0.0452864 0
-0.0323781 -0.0372606 0
-0.0288665 -0.0299795 0
-0.025333 -0.0234434 0
-0.0217488 -0.0176565 0
-0.0180965 -0.0126289 0
-0.0143759 -0.00837892 0
-0.0106138 -0.00493625 0
-0.00687524 -0.00234696 0
-0.00327731 -0.00067676 0
-0.0862421 -0.153572 0
-0.0811329 -0.138542 0
-0.0766957 -0.124809 0
-0.0720529 -0.111959 0
-0.0671187 -0.0999141 0
-0.0623302 -0.088189 0
-0.0576849 -0.0770446 0
-0.0531729 -0.0665699 0
-0.0487743 -0.0568021 0
-0.0444599 -0.0477577 0
-0.0401946 -0.0394443 0
-0.0359405 -0.0318665 0
-0.0316604 -0.025029 0
-0.0273206 -0.0189405 0
-0.0228959 -0.0136163 0
-0.0183745 -0.00908234 0
-0.013766 -0.00537994 0
-0.00910906 -0.00257189 0
-0.00448021 -0.000745777 0
-0.0998919 -0.152689 0
-0.0942318 -0.138297 0
-0.0895119 -0.125049 0
-0.0846004 -0.112564 0
-0.0791657 -0.100776 0
-0.0737876 -0.0892294 0
-0.0684985 -0.0781949 0
-0.063309 -0.0677726 0
-0.0582118 -0.058008 0
-0.053186 -0.0489253 0
-0.0482013 -0.0405392 0
-0.0432211 -0.0328602 0
-0.0382059 -0.0258988 0
-0.0331171 -0.0196688 0
-0.0279198 -0.0141915 0
-0.0225885 -0.00950059 0
-0.0171111 -0.0056477 0
-0.0114953 -0.00270912 0
-0.00577227 -0.000788319 0
-0.112707 -0.148324 0
-0.106672 -0.134777 0
-0.101803 -0.122253 0
-0.0967166 -0.11038 0
-0.0908586 -0.0991189 0
-0.0849661 -0.0880251 0
-0.0791023 -0.0773647 0
-0.0732962 -0.0672436 0
-0.0675535 -0.0577159 0
-0.0618621 -0.0488135 0
-0.0561972 -0.040558 0
-0.0505242 -0.0329661 0
-0.044802 -0.0260539 0
-0.0389862 -0.0198408 0
-0.0330322 -0.014354 0
-0.0268983 -0.00963395 0
-0.0205491 -0.0057406 0
-0.0139582 -0.00275974 0
-0.00711004 -0.000804877 0
-0.124474 -0.14072 0
-0.118223 -0.128219 0
-0.113319 -0.116638 0
-0.108132 -0.105631 0
-0.101929 -0.095148 0
-0.0956111 -0.084745 0
-0.0892549 -0.0746864 0
-0.0829061 -0.0650858 0
-0.0765837 -0.0560046 0
-0.0702855 -0.0474817 0
-0.0639929 -0.0395449 0
-0.0576737 -0.0322168 0
-0.0512858 -0.0255185 0
-0.0447791 -0.0194746 0
-0.0380986 -0.0141173 0
-0.0311859 -0.00949244 0
-0.023981 -0.00566545 0
-0.0164236 -0.00272756 0
-0.00845154 -0.000796702 0
-0.13501 -0.130446 0
-0.128702 -0.119118 0
-0.123854 -0.10863 0
-0.118623 -0.0986634 0
-0.112166 -0.0891283 0
-0.105514 -0.0795973 0
-0.0987509 -0.070328 0
-0.0919386 -0.0614346 0
-0.0851096 -0.0529829 0
-0.0782719 -0.0450169 0
-0.0714135 -0.0375692 0
-0.0645052 -0.0306667 0
-0.0575038 -0.0243351 0
-0.0503541 -0.0186028 0
-0.0429905 -0.0135059 0
-0.035338 -0.00909337 0
-0.0273129 -0.00543334 0
-0.0188213 -0.00261831 0
-0.00975734 -0.000765588 0
-0.144146 -0.117793 0
-0.137963 -0.107836 0
-0.133263 -0.0985693 0
-0.128038 -0.0897682 0
-0.121413 -0.081318 0
-0.114508 -0.0728053 0
-0.107419 -0.0644774 0
-0.100223 -0.056447 0
-0.092963 -0.0487813 0
-0.0856578 -0.0415266 0
-0.0783016 -0.0347184 0
-0.0708686 -0.0283867 0
-0.0633147 -0.0225599 0
-0.0555797 -0.017269 0
-0.0475881 -0.0125522 0
-0.0392494 -0.0084594 0
-0.0304571 -0.00505841 0
-0.0210865 -0.00243915 0
-0.0109914 -0.000713713 0
-0.151813 -0.103063 0
-0.145848 -0.0946356 0
-0.141421 -0.0867623 0
-0.136254 -0.0792394 0
-0.129538 -0.0719781 0
-0.122457 -0.0645977 0
-0.11512 -0.0573329 0
-0.107615 -0.0502932 0
-0.1 -0.0435443 0
-0.0923009 -0.0371324 0
-0.0845188 -0.0310937 0
-0.0766305 -0.0254593 0
-0.0685917 -0.020259 0
-0.0603375 -0.0155246 0
-0.0517836 -0.0112944 0
-0.0428251 -0.00761704 0
-0.033335 -0.00455702 0
-0.0231612 -0.00219822 0
-0.0121215 -0.000643528 0
-0.158056 -0.0868599 0
-0.152317 -0.0799842 0
-0.148226 -0.0735757 0
-0.143195 -0.067389 0
-0.136452 -0.0613714 0
-0.129259 -0.0552033 0
-0.121741 -0.0490964 0
-0.113999 -0.0431501 0
-0.1061 -0.0374252 0
-0.0980809 -0.0319651 0
-0.089946 -0.026805 0
-0.0816754 -0.0219754 0
-0.0732241 -0.0175056 0
-0.0645237 -0.0134266 0
-0.0554818 -0.00977474 0
-0.0459813 -0.0065954 0
-0.0358775 -0.00394701 0
-0.0249946 -0.00190432 0
-0.0131199 -0.000557659 0
-0.162926 -0.0694419 0
-0.157416 -0.0641775 0
-0.153648 -0.0592476 0
-0.148824 -0.0544471 0
-0.142091 -0.0497329 0
-0.134834 -0.044844 0
-0.127192 -0.0399696 0
-0.119278 -0.0351974 0
-0.111166 -0.0305814 0
-0.102898 -0.0261608 0
-0.0944844 -0.0219677 0
-0.0859062 -0.0180307 0
-0.0771187 -0.014377 0
-0.0680503 -0.0110352 0
-0.0586023 -0.00803796 0
-0.0486473 -0.00542521 0
-0.0380263 -0.0032471 0
-0.0265439 -0.00156663 0
-0.0139631 -0.000458833 0
-0.16648 -0.0511802 0
-0.161205 -0.0475464 0
-0.157717 -0.0440787 0
-0.153086 -0.0406729 0
-0.146395 -0.0373011 0
-0.139118 -0.0337405 0
-0.131406 -0.0301535 0
-0.12338 -0.0266154 0
-0.115121 -0.0231723 0
-0.106675 -0.0198577 0
-0.098055 -0.0166998 0
-0.0892452 -0.0137235 0
-0.0802002 -0.0109529 0
-0.0708461 -0.00841254 0
-0.0610796 -0.00613005 0
-0.0507656 -0.00413802 0
-0.039734 -0.00247646 0
-0.0277749 -0.00119452 0
-0.0146324 -0.000349817 0
-0.168771 -0.0324388 0
-0.163731 -0.0303864 0
-0.160459 -0.0283606 0
-0.155973 -0.0263426 0
-0.149333 -0.0243204 0
-0.142069 -0.0221133 0
-0.134334 -0.0198481 0
-0.126252 -0.0175837 0
-0.117909 -0.0153569 0
-0.109352 -0.0131947 0
-0.100599 -0.0111199 0
-0.0916336 -0.00915317 0
-0.0824112 -0.00731383 0
-0.0728568 -0.00562157 0
-0.0628639 -0.00409749 0
-0.0522924 -0.00276562 0
-0.0409648 -0.00165432 0
-0.0286613 -0.00079737 0
-0.0151137 -0.000233367 0
-0.16983 -0.0133976 0
-0.164987 -0.0128722 0
-0.161848 -0.012292 0
-0.157464 -0.0116793 0
-0.150884 -0.0110199 0
-0.143663 -0.0101773 0
-0.135948 -0.00924918 0
-0.127863 -0.00827879 0
-0.119494 -0.00729224 0
-0.110893 -0.00630912 0
-0.102077 -0.00534613 0
-0.0930317 -0.00441839 0
-0.083713 -0.00354007 0
-0.0740453 -0.00272487 0
-0.063921 -0.00198657 0
-0.0531976 -0.00133964 0
-0.041694 -0.000799795 0
-0.0291855 -0.00038444 0
-0.0153975 -0.000112199 0
-0.169623 0.00557506 0
-0.164915 0.00466177 0
-0.161849 0.00382595 0
-0.157549 0.00305924 0
-0.151047 0.00237482 0
-0.143896 0.001861 0
-0.136238 0.00145342 0
-0.128197 0.00112721 0
-0.119861 0.000867774 0
-0.111278 0.000663871 0
-0.102469 0.000505476 0
-0.0934188 0.000383366 0
-0.0840846 0.000289203 0
-0.0743914 0.000215746 0
-0.0642322 0.000157072 0
-0.0534649 0.000108806 0
-0.0419085 6.83585e-05 0
-0.0293381 3.51874e-05 0
-0.0154788 1.10333e-05 0
-0.168105 0.0242925 0
-0.163473 0.0219857 0
-0.160476 0.0197726 0
-0.156253 0.0176639 0
-0.149839 0.0156587 0
-0.142778 0.0138055 0
-0.135212 0.0120768 0
-0.127261 0.010467 0
-0.11901 0.00897306 0
-0.110508 0.00759216 0
-0.101773 0.00632105 0
-0.0927925 0.00515654 0
-0.0835232 0.00409628 0
-0.0738921 0.00313965 0
-0.0637947 0.00228871 0
-0.0530917 0.00154924 0
-0.0416062 0.000931812 0
-0.0291178 0.000452663 0
-0.0153571 0.000133753 0
-0.165263 0.0426302 0
-0.160664 0.0389651 0
-0.15774 0.035396 0
-0.153585 0.0319515 0
-0.147273 0.0286357 0
-0.140328 0.0254649 0
-0.132889 0.0224422 0
-0.125074 0.0195771 0
-0.116962 0.016877 0
-0.108602 0.0143467 0
-0.100008 0.0119894 0
-0.0911692 0.00980783 0
-0.0820436 0.00780532 0
-0.0725609 0.00598768 0
-0.0626204 0.0043647 0
-0.0520886 0.00295197 0
-0.0407959 0.00177273 0
-0.0285311 0.000859389 0
-0.015036 0.000253462 0
-0.161162 0.0602295 0
-0.156574 0.0552773 0
-0.153671 0.0504161 0
-0.149573 0.0456763 0
-0.14338 0.0410912 0
-0.136581 0.0366448 0
-0.129309 0.032372 0
-0.121675 0.0282968 0
-0.113756 0.024436 0
-0.105595 0.0208015 0
-0.0972087 0.0174023 0
-0.0885827 0.0142463 0
-0.0796779 0.0113425 0
-0.0704275 0.00870226 0
-0.0607364 0.00634262 0
-0.0504792 0.00428813 0
-0.039497 0.00257377 0
-0.0275922 0.00124702 0
-0.0145235 0.000367736 0
-0.155845 0.0769548 0
-0.151267 0.0707205 0
-0.148329 0.0645958 0
-0.144273 0.0586071 0
-0.138215 0.05281 0
-0.131591 0.0471501 0
-0.124524 0.04169 0
-0.117119 0.036468 0
-0.109446 0.0315097 0
-0.101545 0.0268336 0
-0.0934287 0.0224541 0
-0.0850847 0.0183838 0
-0.0764751 0.014636 0
-0.0675375 0.0112275 0
-0.0581841 0.00818128 0
-0.0482998 0.00552971 0
-0.0377393 0.00331811 0
-0.026323 0.00160745 0
-0.0138315 0.000474223 0
-0.149334 0.0925469 0
-0.14477 0.0850478 0
-0.141762 0.0776856 0
-0.13775 0.070514 0
-0.131848 0.063583 0
-0.125431 0.0567903 0
-0.118609 0.0502238 0
-0.111479 0.043936 0
-0.104105 0.037961 0
-0.0965215 0.0323236 0
-0.0887387 0.0270426 0
-0.0807435 0.0221346 0
-0.0725003 0.0176166 0
-0.0639519 0.0135094 0
-0.055019 0.00984084 0
-0.0455987 0.00664956 0
-0.0355626 0.00398943 0
-0.0247525 0.0019328 0
-0.0129758 0.000570629 0
-0.141685 0.106731 0
-0.137119 0.0980016 0
-0.134046 0.0894539 0
-0.1301 0.0811861 0
-0.124371 0.0732138 0
-0.11819 0.0653826 0
-0.111654 0.0578063 0
-0.104847 0.0505504 0
-0.0978242 0.043657 0
-0.0906152 0.0371557 0
-0.0832264 0.031069 0
-0.0756437 0.0254164 0
-0.0678341 0.0202175 0
-0.059746 0.015496 0
-0.0513096 0.0112829 0
-0.0424362 0.00762145 0
-0.0330162 0.00457189 0
-0.0229165 0.00221541 0
-0.0119759 0.000654715 0
-0.132922 0.119354 0
-0.128363 0.109409 0
-0.125262 0.0997416 0
-0.121408 0.0904469 0
-0.115879 0.0815145 0
-0.109971 0.0727482 0
-0.103763 0.0642743 0
-0.0973282 0.0561656 0
-0.0907104 0.0484695 0
-0.0839319 0.0412188 0
-0.0769952 0.0344388 0
-0.0698855 0.0281505 0
-0.0625719 0.0223751 0
-0.055009 0.0171375 0
-0.0471373 0.0124706 0
-0.0388833 0.00842018 0
-0.0301586 0.00505021 0
-0.0208578 0.00244783 0
-0.0108553 0.000724281 0
-0.123111 0.129988 0
-0.118604 0.118934 0
-0.115522 0.108265 0
-0.111772 0.0980541 0
-0.106484 0.0882819 0
-0.100893 0.0787086 0
-0.0950619 0.069469 0
-0.0890489 0.0606413 0
-0.0828881 0.052276 0
-0.076594 0.0444079 0
-0.0701646 0.0370631 0
-0.0635838 0.0302632 0
-0.056823 0.0240297 0
-0.0498429 0.0183874 0
-0.0425949 0.0133694 0
-0.0350215 0.0090218 0
-0.0270568 0.00540972 0
-0.0186255 0.00262282 0
-0.00964079 0.00077717 0
-0.112365 0.138406 0
-0.10799 0.12634 0
-0.104967 0.114787 0
-0.101339 0.103788 0
-0.0963329 0.0933204 0
-0.0911018 0.0830904 0
-0.0856943 0.0732378 0
-0.0801529 0.0638446 0
-0.0744996 0.0549622 0
-0.0687405 0.0466256 0
-0.062869 0.0388602 0
-0.0568673 0.0316872 0
-0.0507092 0.0251268 0
-0.0443614 0.019203 0
-0.037786 0.0139473 0
-0.0309417 0.00940407 0
-0.0237857 0.0056366 0
-0.0162745 0.00273347 0
-0.00836264 0.00081127 0
-0.100813 0.14435 0
-0.0966755 0.13139 0
-0.0937582 0.119095 0
-0.0902712 0.107463 0
-0.0855885 0.0964496 0
-0.0807624 0.0857291 0
-0.0758263 0.0754377 0
-0.070804 0.0656534 0
-0.0657048 0.0564252 0
-0.0605263 0.0477857 0
-0.055257 0.0397587 0
-0.0498776 0.0323637 0
-0.0443639 0.0256194 0
-0.0386883 0.0195474 0
-0.032823 0.0141764 0
-0.0267426 0.00954708 0
-0.0204273 0.00571818 0
-0.0138653 0.00277324 0
-0.00705432 0.000824528 0
-0.0886742 0.147398 0
-0.0848942 0.133748 0
-0.0821169 0.120923 0
-0.0787682 0.10885 0
-0.0744408 0.0974801 0
-0.0700671 0.0864685 0
-0.0656479 0.0759398 0
-0.0611871 0.0659619 0
-0.0566816 0.0565778 0
-0.0521213 0.047817 0
-0.0474901 0.0397007 0
-0.0427672 0.0322464 0
-0.0379298 0.0254702 0
-0.0329556 0.0193912 0
-0.0278258 0.0140342 0
-0.0225298 0.00943443 0
-0.0170692 0.00564361 0
-0.011463 0.00273626 0
-0.00575213 0.000814996 0
-0.0762124 0.147359 0
-0.0729184 0.133221 0
-0.0702796 0.120065 0
-0.0670565 0.10774 0
-0.0631225 0.0962379 0
-0.0592421 0.0851744 0
-0.055375 0.0746394 0
-0.0515069 0.0646872 0
-0.0476241 0.0553549 0
-0.0437089 0.0466685 0
-0.0397408 0.0386466 0
-0.0356973 0.0313043 0
-0.0315568 0.0246554 0
-0.0273009 0.0187157 0
-0.022919 0.0135059 0
-0.0184127 0.00905477 0
-0.0138026 0.00540473 0
-0.00913603 0.00261768 0
-0.00449473 0.0007809 0
-0.063766 0.143858 0
-0.061007 0.129521 0
-0.0584644 0.116267 0
-0.0553888 0.10395 0
-0.0519045 0.0926 0
-0.0485417 0.081757 0
-0.0452436 0.0714683 0
-0.0419842 0.061778 0
-0.0387392 0.0527192 0
-0.0354828 0.0443146 0
-0.0321895 0.0365798 0
-0.0288349 0.0295273 0
-0.0253983 0.0231686 0
-0.0218645 0.0175166 0
-0.0182287 0.0125878 0
-0.014502 0.00840421 0
-0.0107204 0.00499764 0
-0.00695453 0.00241438 0
-0.00332234 0.000720795 0
-0.0516944 0.136426 0
-0.0494139 0.122314 0
-0.0469324 0.109353 0
-0.0440872 0.0974105 0
-0.0410788 0.0865295 0
-0.0382274 0.0761831 0
-0.0354969 0.0663995 0
-0.0328484 0.0572181 0
-0.0302423 0.0486662 0
-0.0276432 0.0407606 0
-0.0250205 0.0335124 0
-0.0223487 0.0269312 0
-0.0196076 0.0210264 0
-0.0167844 0.0158087 0
-0.0138781 0.0112912 0
-0.0109059 0.0074896 0
-0.00791335 0.00442494 0
-0.00498788 0.0021261 0
-0.00227556 0.000633836 0
-0.0402127 0.124693 0
-0.0384442 0.111452 0
-0.0360361 0.0993496 0
-0.0334332 0.0881913 0
-0.0308879 0.0780433 0
-0.0285409 0.0684514 0
-0.0263769 0.059439 0
-0.0243336 0.0510274 0
-0.0223538 0.0432285 0
-0.0203932 0.0360482 0
-0.0184187 0.0294913 0
-0.0164047 0.023564 0
-0.0143327 0.0182742 0
-0.0121917 0.013632 0
-0.00998232 0.00964796 0
-0.00772374 0.00633337 0
-0.00546501 0.00369935 0
-0.00330085 0.0017575 0
-0.00139338 0.000520342 0
-0.0295312 0.108568 0
-0.0284 0.0968484 0
-0.0261123 0.0861264 0
-0.0236479 0.076188 0
-0.0215466 0.0670869 0
-0.0197272 0.0585575 0
-0.0181366 0.0506202 0
-0.0166834 0.0432656 0
-0.0152987 0.0364822 0
-0.0139363 0.0302624 0
-0.0125647 0.0246047 0
-0.0111615 0.0195126 0
-0.00971111 0.014994 0
-0.00820416 0.011059 0
-0.00664133 0.00771821 0
-0.00503985 0.00498033 0
-0.00344502 0.00284927 0
-0.00194771 0.00132162 0
-0.000709945 0.000383027 0
-0.019808 0.0880887 0
-0.0193977 0.0784359 0
-0.0173866 0.0694713 0
-0.0150415 0.061185 0
-0.0133644 0.0535816 0
-0.012093 0.046527 0
-0.0110637 0.0400283 0
-0.010158 0.0340484 0
-0.00930786 0.0285575 0
-0.00847412 0.0235395 0
-0.00763263 0.0189897 0
-0.00676697 0.0149111 0
-0.00586544 0.0113122 0
-0.00492091 0.0082046 0
-0.00393313 0.00560022 0
-0.00291428 0.0035077 0
-0.00189945 0.00192768 0
-0.000963562 0.000846951 0
-0.000247181 0.000228633 0
-0.0114855 0.0633603 0
-0.0115846 0.0563721 0
-0.0100081 0.0494831 0
-0.00797422 0.0432251 0
-0.00675451 0.0376169 0
-0.00601543 0.032509 0
-0.00548262 0.0278444 0
-0.00503334 0.0235688 0
-0.00461604 0.0196504 0
-0.00420619 0.0160749 0
-0.0037899 0.0128393 0
-0.00335779 0.00994799 0
-0.00290285 0.00741015 0
-0.0024203 0.00523806 0
-0.001909 0.00344473 0
-0.00137499 0.00204027 0
-0.000839126 0.00102613 0
-0.000351582 0.000387504 0
-9.45045e-06 8.11548e-05 0
-0.00526479 0.0346242 0
-0.00511854 0.0308184 0
-0.0040837 0.0263887 0
-0.00281474 0.0226252 0
-0.0021704 0.0195448 0
-0.00188972 0.0168374 0
-0.00171725 0.0143717 0
-0.00157903 0.0121061 0