<?xml version="1.0"?>
<VTKFile type="UnstructuredGrid">
  <UnstructuredGrid>
  <Piece NumberOfPoints="3321"  NumberOfCells="800">
    <Points>
      <DataArray type="Float64" NumberOfComponents="3" format="ascii">
0 0 0.1
0.0125 0 0.1
0.025 0 0.1
0.0375 0 0.1
0.05 0 0.1
0.0625 0 0.1
0.075 0 0.1
0.0875 0 0.1
0.1 0 0.1
0.1125 0 0.1
0.125 0 0.1
0.1375 0 0.1
0.15 0 0.1
0.1625 0 0.1
0.175 0 0.1
0.1875 0 0.1
0.2 0 0.1
0.2125 0 0.1
0.225 0 0.1
0.2375 0 0.1
0.25 0 0.1
0.2625 0 0.1
0.275 0 0.1
0.2875 0 0.1
0.3 0 0.1
0.3125 0 0.1
0.325 0 0.1
0.3375 0 0.1
0.35 0 0.1
0.3625 0 0.1
0.375 0 0.1
0.3875 0 0.1
0.4 0 0.1
0.4125 0 0.1
0.425 0 0.1
0.4375 0 0.1
0.45 0 0.1
0.4625 0 0.1
0.475 0 0.1
0.4875 0 0.1
0.5 0 0.1
0.5125 0 0.1
0.525 0 0.1
0.5375 0 0.1
0.55 0 0.1
0.5625 0 0.1
0.575 0 0.1
0.5875 0 0.1
0.6 0 0.1
0.6125 0 0.1
0.625 0 0.1
0.6375 0 0.1
0.65 0 0.1
0.6625 0 0.1
0.675 0 0.1
0.6875 0 0.1
0.7 0 0.1
0.7125 0 0.1
0.725 0 0.1
0.7375 0 0.1
0.75 0 0.1
0.7625 0 0.1
0.775 0 0.1
0.7875 0 0.1
0.8 0 0.1
0.8125 0 0.1
0.825 0 0.1
0.8375 0 0.1
0.85 0 0.1
0.8625 0 0.1
0.875 0 0.1
0.8875 0 0.1
0.9 0 0.1
0.9125 0 0.1
0.925 0 0.1
0.9375 0 0.1
0.95 0 0.1
0.9625 0 0.1
0.975 0 0.1
0.9875 0 0.1
1 0 0.1
0 0.0125 0.1
0.0125 0.0125 0.1
0.025 0.0125 0.1
0.0375 0.0125 0.1
0.05 0.0125 0.1
0.0625 0.0125 0.1
0.075 0.0125 0.1
0.0875 0.0125 0.1
0.1 0.0125 0.1
0.1125 0.0125 0.1
0.125 0.0125 0.1
0.1375 0.0125 0.1
0.15 0.0125 0.1
0.1625 0.0125 0.1
0.175 0.0125 0.1
0.1875 0.0125 0.1
0.2 0.0125 0.1
0.2125 0.0125 0.1
0.225 0.0125 0.1
0.2375 0.0125 0.1
0.25 0.0125 0.1
0.2625 0.0125 0.1
0.275 0.0125 0.1
0.2875 0.0125 0.1
0.3 0.0125 0.1
0.3125 0.0125 0.1
0.325 0.0125 0.1
0.3375 0.0125 0.1
0.35 0.0125 0.1
0.3625 0.0125 0.1
0.375 0.0125 0.1
0.3875 0.0125 0.1
0.4 0.0125 0.1
0.4125 0.0125 0.1
0.425 0.0125 0.1
0.4375 0.0125 0.1
0.45 0.0125 0.1
0.4625 0.0125 0.1
0.475 0.0125 0.1
0.4875 0.0125 0.1
0.5 0.0125 0.1
0.5125 0.0125 0.1
0.525 0.0125 0.1
0.5375 0.0125 0.1
0.55 0.0125 0.1
0.5625 0.0125 0.1
0.575 0.0125 0.1
0.5875 0.0125 0.1
0.6 0.0125 0.1
0.6125 0.0125 0.1
0.625 0.0125 0.1
0.6375 0.0125 0.1
0.65 0.0125 0.1
0.6625 0.0125 0.1
0.675 0.0125 0.1
0.6875 0.0125 0.1
0.7 0.0125 0.1
0.7125 0.0125 0.1
0.725 0.0125 0.1
0.7375 0.0125 0.1
0.75 0.0125 0.1
0.7625 0.0125 0.1
0.775 0.0125 0.1
0.7875 0.0125 0.1
0.8 0.0125 0.1
0.8125 0.0125 0.1
0.825 0.0125 0.1
0.8375 0.0125 0.1
0.85 0.0125 0.1
0.8625 0.0125 0.1
0.875 0.0125 0.1
0.8875 0.0125 0.1
0.9 0.0125 0.1
0.9125 0.0125 0.1
0.925 0.0125 0.1
0.9375 0.0125 0.1
0.95 0.0125 0.1
0.9625 0.0125 0.1
0.975 0.0125 0.1
0.9875 0.0125 0.1
1 0.0125 0.1
0 0.025 0.1
0.0125 0.025 0.1
0.025 0.025 0.1
0.0375 0.025 0.1
0.05 0.025 0.1
0.0625 0.025 0.1
0.075 0.025 0.1
0.0875 0.025 0.1
0.1 0.025 0.1
0.1125 0.025 0.1
0.125 0.025 0.1
0.1375 0.025 0.1
0.15 0.025 0.1
0.1625 0.025 0.1
0.175 0.025 0.1
0.1875 0.025 0.1
0.2 0.025 0.1
0.2125 0.025 0.1
0.225 0.025 0.1
0.2375 0.025 0.1
0.25 0.025 0.1
0.2625 0.025 0.1
0.275 0.025 0.1
0.2875 0.025 0.1
0.3 0.025 0.1
0.3125 0.025 0.1
0.325 0.025 0.1
0.3375 0.025 0.1
0.35 0.025 0.1
0.3625 0.025 0.1
0.375 0.025 0.1
0.3875 0.025 0.1
0.4 0.025 0.1
0.4125 0.025 0.1
0.425 0.025 0.1
0.4375 0.025 0.1
0.45 0.025 0.1
0.4625 0.025 0.1
0.475 0.025 0.1
0.4875 0.025 0.1
0.5 0.025 0.1
0.5125 0.025 0.1
0.525 0.025 0.1
0.5375 0.025 0.1
0.55 0.025 0.1
0.5625 0.025 0.1
0.575 0.025 0.1
0.5875 0.025 0.1
0.6 0.025 0.1
0.6125 0.025 0.1
0.625 0.025 0.1
0.6375 0.025 0.1
0.65 0.025 0.1
0.6625 0.025 0.1
0.675 0.025 0.1
0.6875 0.025 0.1
0.7 0.025 0.1
0.7125 0.025 0.1
0.725 0.025 0.1
0.7375 0.025 0.1
0.75 0.025 0.1
0.7625 0.025 0.1
0.775 0.025 0.1
0.7875 0.025 0.1
0.8 0.025 0.1
0.8125 0.025 0.1
0.825 0.025 0.1
0.8375 0.025 0.1
0.85 0.025 0.1
0.8625 0.025 0.1
0.875 0.025 0.1
0.8875 0.025 0.1
0.9 0.025 0.1
0.9125 0.025 0.1
0.925 0.025 0.1
0.9375 0.025 0.1
0.95 0.025 0.1
0.9625 0.025 0.1
0.975 0.025 0.1
0.9875 0.025 0.1
1 0.025 0.1
0 0.0375 0.1
0.0125 0.0375 0.1
0.025 0.0375 0.1
0.0375 0.0375 0.1
0.05 0.0375 0.1
0.0625 0.0375 0.1
0.075 0.0375 0.1
0.0875 0.0375 0.1
0.1 0.0375 0.1
0.1125 0.0375 0.1
0.125 0.0375 0.1
0.1375 0.0375 0.1
0.15 0.0375 0.1
0.1625 0.0375 0.1
0.175 0.0375 0.1
0.1875 0.0375 0.1
0.2 0.0375 0.1
0.2125 0.0375 0.1
0.225 0.0375 0.1
0.2375 0.0375 0.1
0.25 0.0375 0.1
0.2625 0.0375 0.1
0.275 0.0375 0.1
0.2875 0.0375 0.1
0.3 0.0375 0.1
0.3125 0.0375 0.1
0.325 0.0375 0.1
0.3375 0.0375 0.1
0.35 0.0375 0.1
0.3625 0.0375 0.1
0.375 0.0375 0.1
0.3875 0.0375 0.1
0.4 0.0375 0.1
0.4125 0.0375 0.1
0.425 0.0375 0.1
0.4375 0.0375 0.1
0.45 0.0375 0.1
0.4625 0.0375 0.1
0.475 0.0375 0.1
0.4875 0.0375 0.1
0.5 0.0375 0.1
0.5125 0.0375 0.1
0.525 0.0375 0.1
0.5375 0.0375 0.1
0.55 0.0375 0.1
0.5625 0.0375 0.1
0.575 0.0375 0.1
0.5875 0.0375 0.1
0.6 0.0375 0.1
0.6125 0.0375 0.1
0.625 0.0375 0.1
0.6375 0.0375 0.1
0.65 0.0375 0.1
0.6625 0.0375 0.1
0.675 0.0375 0.1
0.6875 0.0375 0.1
0.7 0.0375 0.1
0.7125 0.0375 0.1
0.725 0.0375 0.1
0.7375 0.0375 0.1
0.75 0.0375 0.1
0.7625 0.0375 0.1
0.775 0.0375 0.1
0.7875 0.0375 0.1
0.8 0.0375 0.1
0.8125 0.0375 0.1
0.825 0.0375 0.1
0.8375 0.0375 0.1
0.85 0.0375 0.1
0.8625 0.0375 0.1
0.875 0.0375 0.1
0.8875 0.0375 0.1
0.9 0.0375 0.1
0.9125 0.0375 0.1
0.925 0.0375 0.1
0.9375 0.0375 0.1
0.95 0.0375 0.1
0.9625 0.0375 0.1
0.975 0.0375 0.1
0.9875 0.0375 0.1
1 0.0375 0.1
0 0.05 0.1
0.0125 0.05 0.1
0.025 0.05 0.1
0.0375 0.05 0.1
0.05 0.05 0.1
0.0625 0.05 0.1
0.075 0.05 0.1
0.0875 0.05 0.1
0.1 0.05 0.1
0.1125 0.05 0.1
0.125 0.05 0.1
0.1375 0.05 0.1
0.15 0.05 0.1
0.1625 0.05 0.1
0.175 0.05 0.1
0.1875 0.05 0.1
0.2 0.05 0.1
0.2125 0.05 0.1
0.225 0.05 0.1
0.2375 0.05 0.1
0.25 0.05 0.1
0.2625 0.05 0.1
0.275 0.05 0.1
0.2875 0.05 0.1
0.3 0.05 0.1
0.3125 0.05 0.1
0.325 0.05 0.1
0.3375 0.05 0.1
0.35 0.05 0.1
0.3625 0.05 0.1
0.375 0.05 0.1
0.3875 0.05 0.1
0.4 0.05 0.1
0.4125 0.05 0.1
0.425 0.05 0.1
0.4375 0.05 0.1
0.45 0.05 0.1
0.4625 0.05 0.1
0.475 0.05 0.1
0.4875 0.05 0.1
0.5 0.05 0.1
0.5125 0.05 0.1
0.525 0.05 0.1
0.5375 0.05 0.1
0.55 0.05 0.1
0.5625 0.05 0.1
0.575 0.05 0.1
0.5875 0.05 0.1
0.6 0.05 0.1
0.6125 0.05 0.1
0.625 0.05 0.1
0.6375 0.05 0.1
0.65 0.05 0.1
0.6625 0.05 0.1
0.675 0.05 0.1
0.6875 0.05 0.1
0.7 0.05 0.1
0.7125 0.05 0.1
0.725 0.05 0.1
0.7375 0.05 0.1
0.75 0.05 0.1
0.7625 0.05 0.1
0.775 0.05 0.1
0.7875 0.05 0.1
0.8 0.05 0.1
0.8125 0.05 0.1
0.825 0.05 0.1
0.8375 0.05 0.1
0.85 0.05 0.1
0.8625 0.05 0.1
0.875 0.05 0.1
0.8875 0.05 0.1
0.9 0.05 0.1
0.9125 0.05 0.1
0.925 0.05 0.1
0.9375 0.05 0.1
0.95 0.05 0.1
0.9625 0.05 0.1
0.975 0.05 0.1
0.9875 0.05 0.1
1 0.05 0.1
0 0.0625 0.1
0.0125 0.0625 0.1
0.025 0.0625 0.1
0.0375 0.0625 0.1
0.05 0.0625 0.1
0.0625 0.0625 0.1
0.075 0.0625 0.1
0.0875 0.0625 0.1
0.1 0.0625 0.1
0.1125 0.0625 0.1
0.125 0.0625 0.1
0.1375 0.0625 0.1
0.15 0.0625 0.1
0.1625 0.0625 0.1
0.175 0.0625 0.1
0.1875 0.0625 0.1
0.2 0.0625 0.1
0.2125 0.0625 0.1
0.225 0.0625 0.1
0.2375 0.0625 0.1
0.25 0.0625 0.1
0.2625 0.0625 0.1
0.275 0.0625 0.1
0.2875 0.0625 0.1
0.3 0.0625 0.1
0.3125 0.0625 0.1
0.325 0.0625 0.1
0.3375 0.0625 0.1
0.35 0.0625 0.1
0.3625 0.0625 0.1
0.375 0.0625 0.1
0.3875 0.0625 0.1
0.4 0.0625 0.1
0.4125 0.0625 0.1
0.425 0.0625 0.1
0.4375 0.0625 0.1
0.45 0.0625 0.1
0.4625 0.0625 0.1
0.475 0.0625 0.1
0.4875 0.0625 0.1
0.5 0.0625 0.1
0.5125 0.0625 0.1
0.525 0.0625 0.1
0.5375 0.0625 0.1
0.55 0.0625 0.1
0.5625 0.0625 0.1
0.575 0.0625 0.1
0.5875 0.0625 0.1
0.6 0.0625 0.1
0.6125 0.0625 0.1
0.625 0.0625 0.1
0.6375 0.0625 0.1
0.65 0.0625 0.1
0.6625 0.0625 0.1
0.675 0.0625 0.1
0.6875 0.0625 0.1
0.7 0.0625 0.1
0.7125 0.0625 0.1
0.725 0.0625 0.1
0.7375 0.0625 0.1
0.75 0.0625 0.1
0.7625 0.0625 0.1
0.775 0.0625 0.1
0.7875 0.0625 0.1
0.8 0.0625 0.1
0.8125 0.0625 0.1
0.825 0.0625 0.1
0.8375 0.0625 0.1
0.85 0.0625 0.1
0.8625 0.0625 0.1
0.875 0.0625 0.1
0.8875 0.0625 0.1
0.9 0.0625 0.1
0.9125 0.0625 0.1
0.925 0.0625 0.1
0.9375 0.0625 0.1
0.95 0.0625 0.1
0.9625 0.0625 0.1
0.975 0.0625 0.1
0.9875 0.0625 0.1
1 0.0625 0.1
0 0.075 0.1
0.0125 0.075 0.1
0.025 0.075 0.1
0.0375 0.075 0.1
0.05 0.075 0.1
0.0625 0.075 0.1
0.075 0.075 0.1
0.0875 0.075 0.1
0.1 0.075 0.1
0.1125 0.075 0.1
0.125 0.075 0.1
0.1375 0.075 0.1
0.15 0.075 0.1
0.1625 0.075 0.1
0.175 0.075 0.1
0.1875 0.075 0.1
0.2 0.075 0.1
0.2125 0.075 0.1
0.225 0.075 0.1
0.2375 0.075 0.1
0.25 0.075 0.1
0.2625 0.075 0.1
0.275 0.075 0.1
0.2875 0.075 0.1
0.3 0.075 0.1
0.3125 0.075 0.1
0.325 0.075 0.1
0.3375 0.075 0.1
0.35 0.075 0.1
0.3625 0.075 0.1
0.375 0.075 0.1
0.3875 0.075 0.1
0.4 0.075 0.1
0.4125 0.075 0.1
0.425 0.075 0.1
0.4375 0.075 0.1
0.45 0.075 0.1
0.4625 0.075 0.1
0.475 0.075 0.1
0.4875 0.075 0.1
0.5 0.075 0.1
0.5125 0.075 0.1
0.525 0.075 0.1
0.5375 0.075 0.1
0.55 0.075 0.1
0.5625 0.075 0.1
0.575 0.075 0.1
0.5875 0.075 0.1
0.6 0.075 0.1
0.6125 0.075 0.1
0.625 0.075 0.1
0.6375 0.075 0.1
0.65 0.075 0.1
0.6625 0.075 0.1
0.675 0.075 0.1
0.6875 0.075 0.1
0.7 0.075 0.1
0.7125 0.075 0.1
0.725 0.075 0.1
0.7375 0.075 0.1
0.75 0.075 0.1
0.7625 0.075 0.1
0.775 0.075 0.1
0.7875 0.075 0.1
0.8 0.075 0.1
0.8125 0.075 0.1
0.825 0.075 0.1
0.8375 0.075 0.1
0.85 0.075 0.1
0.8625 0.075 0.1
0.875 0.075 0.1
0.8875 0.075 0.1
0.9 0.075 0.1
0.9125 0.075 0.1
0.925 0.075 0.1
0.9375 0.075 0.1
0.95 0.075 0.1
0.9625 0.075 0.1
0.975 0.075 0.1
0.9875 0.075 0.1
1 0.075 0.1
0 0.0875 0.1
0.0125 0.0875 0.1
0.025 0.0875 0.1
0.0375 0.0875 0.1
0.05 0.0875 0.1
0.0625 0.0875 0.1
0.075 0.0875 0.1
0.0875 0.0875 0.1
0.1 0.0875 0.1
0.1125 0.0875 0.1
0.125 0.0875 0.1
0.1375 0.0875 0.1
0.15 0.0875 0.1
0.1625 0.0875 0.1
0.175 0.0875 0.1
0.1875 0.0875 0.1
0.2 0.0875 0.1
0.2125 0.0875 0.1
0.225 0.0875 0.1
0.2375 0.0875 0.1
0.25 0.0875 0.1
0.2625 0.0875 0.1
0.275 0.0875 0.1
0.2875 0.0875 0.1
0.3 0.0875 0.1
0.3125 0.0875 0.1
0.325 0.0875 0.1
0.3375 0.0875 0.1
0.35 0.0875 0.1
0.3625 0.0875 0.1
0.375 0.0875 0.1
0.3875 0.0875 0.1
0.4 0.0875 0.1
0.4125 0.0875 0.1
0.425 0.0875 0.1
0.4375 0.0875 0.1
0.45 0.0875 0.1
0.4625 0.0875 0.1
0.475 0.0875 0.1
0.4875 0.0875 0.1
0.5 0.0875 0.1
0.5125 0.0875 0.1
0.525 0.0875 0.1
0.5375 0.0875 0.1
0.55 0.0875 0.1
0.5625 0.0875 0.1
0.575 0.0875 0.1
0.5875 0.0875 0.1
0.6 0.0875 0.1
[...]
    <PointData>
      <DataArray type="Float64" NumberOfComponents="3" Name="Velocity" format="ascii">
0 0 0
0 0 0
0 0 0
0 0 0
0 0 0
0 0 0
0 0 0
0 0 0
0 0 0
0 0 0
0 0 0
0 0 0
0 0 0
0 0 0
0 0 0
0 0 0
0 0 0
0 0 0
0 0 0
0 0 0
0 0 0
0 0 0
0 0 0
0 0 0
0 0 0
0 0 0
0 0 0
0 0 0
0 0 0
0 0 0
0 0 0
0 0 0
0 0 0
0 0 0
0 0 0
0 0 0
0 0 0
0 0 0
0 0 0
0 0 0
0 0 0
0 0 0
0 0 0
0 0 0
0 0 0
0 0 0
0 0 0
0 0 0
0 0 0
0 0 0
0 0 0
0 0 0
0 0 0
0 0 0
0 0 0
0 0 0
0 0 0
0 0 0
0 0 0
0 0 0
0 0 0
0 0 0
0 0 0
0 0 0
0 0 0
0 0 0
0 0 0
0 0 0
0 0 0
0 0 0
0 0 0
0 0 0
0 0 0
0 0 0
0 0 0
0 0 0
0 0 0
0 0 0
0 0 0
0 0 0
0 0 0
0 0 0
-1.3251e+20 6.16256e+19 0
-1.5015e+20 2.97651e+19 0
-1.05029e+20 -3.20155e+19 0
-4.92555e+19 -6.01505e+19 0
-1.91648e+19 -5.13737e+19 0
-5.10932e+19 -2.41895e+18 0
-1.14454e+20 2.13982e+19 0
-1.78659e+20 -4.52375e+19 0
-2.00295e+20 -1.41104e+20 0
-1.35949e+20 -2.04981e+20 0
-4.96297e+19 -2.03873e+20 0
-5.34698e+18 -1.04787e+20 0
-1.83686e+18 1.70674e+19 0
-3.78353e+19 8.64789e+19 0
-1.01924e+20 1.00645e+20 0
-1.82684e+20 5.67629e+19 0
-2.57819e+20 -1.73934e+19 0
-3.05029e+20 -9.40505e+19 0
-2.97439e+20 -1.04344e+20 0
-2.08172e+20 2.05899e+19 0
-1.06697e+20 1.43402e+20 0
-6.24812e+19 1.26741e+20 0
-4.68811e+19 5.60009e+19 0
-3.12541e+19 1.65725e+19 0
-2.05736e+19 1.55355e+18 0
-1.9813e+19 4.04171e+18 0
-2.40336e+19 1.19782e+19 0
-2.82971e+19 1.3304e+19 0
-2.58154e+19 1.05831e+19 0
-9.80033e+18 6.37885e+18 0
6.15938e+18 6.29685e+18 0
8.47499e+18 1.59425e+19 0
-3.76265e+18 -1.98559e+19 0
-3.14627e+19 -1.5627e+20 0
-7.0239e+19 -2.65924e+20 0
-1.15706e+20 -2.21445e+20 0
-1.4489e+20 -1.02333e+20 0
-1.34819e+20 1.19132e+19 0
-1.01916e+20 8.06378e+19 0
-6.26063e+19 6.31864e+19 0
-1.71142e+19 2.43983e+19 0
3.43346e+19 2.91131e+19 0
1.16012e+20 3.82332e+19 0
2.52191e+20 1.2661e+19 0
4.36232e+20 1.59462e+19 0
6.61495e+20 1.11639e+20 0
1.24854e+21 2.69588e+20 0
2.51791e+21 4.59644e+20 0
3.69412e+21 5.92924e+20 0
4.00166e+21 5.80544e+20 0
3.47833e+21 1.11839e+21 0
2.16191e+21 2.90235e+21 0
5.37228e+20 3.83242e+21 0
-9.10897e+20 1.80859e+21 0
-2.50987e+21 -5.9979e+20 0
-4.5871e+21 -8.23381e+20 0
-6.02204e+21 2.7057e+19 0
-5.69417e+21 8.40762e+20 0
-4.57196e+21 1.18867e+21 0
-3.62391e+21 6.41736e+20 0
-2.83099e+21 -2.86969e+20 0
-2.17422e+21 -1.08436e+21 0
-1.6855e+21 -2.05941e+21 0
-1.39676e+21 -3.5211e+21 0
-6.14579e+20 -4.32441e+21 0
1.35447e+21 -3.32433e+21 0
3.31417e+21 -1.01585e+21 0
4.06831e+21 2.10604e+21 0
3.97411e+21 4.15488e+21 0
3.38877e+21 3.24421e+21 0
2.59255e+21 1.17619e+21 0
1.86565e+21 -2.47049e+20 0
1.16791e+21 -1.02001e+21 0
4.59119e+20 -1.13723e+21 0
-6.87562e+19 -7.62222e+20 0
-2.23758e+20 -5.85162e+19 0
-1.96185e+20 4.41902e+20 0
-1.76337e+20 2.07047e+20 0
-1.2426e+20 -1.45961e+20 0
0 0 0
0 0 0
-1.22391e+20 8.7749e+19 0
-1.00963e+20 1.10344e+19 0
-2.52861e+19 -9.73109e+19 0
1.50698e+19 -1.04454e+20 0
1.26133e+19 -4.87833e+19 0
-4.01469e+19 3.13126e+19 0
-1.18394e+20 4.15263e+19 0
-1.97313e+20 -1.1245e+20 0
-2.38984e+20 -2.84367e+20 0
-2.05489e+20 -3.27979e+20 0
-1.37939e+20 -2.65118e+20 0
-7.74437e+19 -1.17619e+20 0
-3.00304e+19 3.95095e+19 0
-1.72668e+18 1.3126e+20 0
-1.39579e+19 1.58428e+20 0
-8.81495e+19 1.2181e+20 0
-1.82897e+20 4.28935e+19 0
-2.56795e+20 -5.68338e+19 0
-2.79039e+20 -9.36214e+19 0
-2.18824e+20 1.62816e+19 0
-1.27346e+20 1.31863e+20 0
-5.58044e+19 1.12111e+20 0
-1.15284e+19 4.45328e+19 0
-1.84871e+18 1.66344e+19 0
-1.39669e+19 1.14393e+19 0
-3.50848e+19 1.1971e+19 0
-4.81138e+19 1.10154e+19 0
-3.59653e+19 1.35859e+18 0
-1.05528e+19 -9.31112e+18 0
1.621e+19 -1.33053e+19 0
3.73021e+19 -7.24233e+18 0
4.57026e+19 1.22596e+19 0
3.35693e+19 -8.26064e+18 0
-6.93993e+18 -1.22264e+20 0
-7.77854e+19 -2.17321e+20 0
-1.80927e+20 -1.81002e+20 0
-2.63722e+20 -8.60888e+19 0
-2.73523e+20 -5.36521e+18 0
-2.3433e+20 3.82004e+19 0
-1.70142e+20 2.16397e+19 0
-9.53339e+19 -6.99774e+18 0
-2.42806e+19 3.38023e+17 0
6.47412e+19 8.66108e+18 0
1.93455e+20 -1.70144e+19 0
3.31827e+20 -4.79538e+19 0
4.49822e+20 -5.54224e+19 0
8.66008e+20 -3.03545e+19 0
1.89895e+21 3.63157e+19 0
3.00257e+21 1.86142e+20 0
3.6308e+21 4.6068e+20 0
3.61296e+21 1.4373e+21 0
2.77834e+21 3.69338e+21 0
1.73541e+21 4.96475e+21 0
1.09261e+21 2.98721e+21 0
-2.65144e+20 5.27114e+20 0
-3.45292e+21 3.50812e+20 0
-6.25939e+21 1.00994e+21 0
-6.47325e+21 1.05614e+21 0
-5.14455e+21 6.38456e+20 0
-3.32336e+21 -9.40421e+19 0
-1.69855e+21 -7.64517e+20 0
-9.59017e+20 -9.96127e+20 0
-1.04989e+21 -1.68696e+21 0
-1.91633e+21 -3.73511e+21 0
-2.23656e+21 -5.42941e+21 0
-6.88833e+20 -5.05866e+21 0
1.9842e+21 -2.47048e+21 0
5.03989e+21 2.48757e+21 0
7.22243e+21 6.08002e+21 0
7.27606e+21 4.57142e+21 0
6.12774e+21 1.41609e+21 0
4.70441e+21 6.83732e+19 0
3.02595e+21 -3.00426e+20 0
1.11222e+21 -5.18988e+20 0
-3.98169e+20 -4.54011e+20 0
-8.66627e+20 2.78053e+19 0
-7.39418e+20 3.68678e+20 0
-4.62809e+20 1.08222e+19 0
-1.71453e+20 -3.45493e+20 0
0 0 0
0 0 0
-5.17262e+19 8.53517e+19 0
1.60333e+18 -2.18438e+19 0
7.15534e+19 -1.5025e+20 0
6.9689e+19 -1.28528e+20 0
3.67565e+19 -3.68923e+19 0
1.35023e+19 4.44451e+19 0
-2.11322e+19 3.20617e+19 0
-8.82055e+19 -1.57465e+20 0
-1.59724e+20 -3.43256e+20 0
-2.07694e+20 -3.44434e+20 0
-2.12274e+20 -2.38476e+20 0
-1.53623e+20 -1.02861e+20 0
-5.50427e+19 3.13207e+19 0
6.01684e+19 1.32978e+20 0
1.33176e+20 1.87827e+20 0
1.05147e+20 1.81582e+20 0
2.57957e+19 1.31312e+20 0
-5.51633e+19 5.40861e+19 0
-1.10875e+20 2.59775e+18 0
-1.14484e+20 2.95414e+19 0
-7.74255e+19 6.66297e+19 0
-1.11332e+19 4.55753e+19 0
4.08439e+19 1.34703e+19 0
3.49568e+19 1.74067e+19 0
9.55688e+17 2.87403e+19 0
-3.14093e+19 1.8827e+19 0
-4.44491e+19 -2.59275e+18 0
-2.04746e+19 -2.57781e+19 0
1.50833e+19 -4.0667e+19 0
3.67935e+19 -3.71974e+19 0
5.12338e+19 -2.03284e+19 0
6.4982e+19 4.98114e+18 0
6.33807e+19 1.34313e+19 0
3.17724e+19 -2.02778e+19 0
-4.00107e+19 -5.24938e+19 0
-1.62136e+20 -3.95641e+19 0
-2.73173e+20 -1.6785e+19 0
-3.11692e+20 -1.9453e+19 0
-2.95451e+20 -3.69985e+19 0
-2.42208e+20 -5.88518e+19 0
-1.72152e+20 -7.41246e+19 0
-1.05471e+20 -7.19282e+19 0
-3.58873e+19 -6.95609e+19 0
4.28744e+19 -8.43208e+19 0
7.80401e+19 -1.34912e+20 0
1.68355e+19 -2.40038e+20 0
4.31336e+19 -3.86048e+20 0
3.40808e+20 -5.59293e+20 0
8.8102e+20 -4.85673e+20 0
1.63493e+21 1.08907e+20 0
2.24565e+21 1.30091e+21 0
2.35628e+21 3.16678e+21 0
2.49191e+21 4.31078e+21 0
3.17762e+21 3.33714e+21 0
2.75967e+21 2.05628e+21 0
-4.15668e+20 2.27861e+21 0
-3.7367e+21 2.48664e+21 0
-4.59173e+21 1.16291e+21 0
-3.64083e+21 -5.0059e+20 0
-1.54409e+21 -1.31188e+21 0
4.27353e+20 -1.31924e+21 0
1.00234e+21 -5.70966e+20 0
2.91711e+20 -4.54579e+20 0
-1.59372e+21 -2.3576e+21 0
-3.23985e+21 -4.63492e+21 0
-3.23259e+21 -5.64142e+21 0
-1.12559e+21 -4.07946e+21 0
3.52751e+21 1.34864e+21 0
7.84903e+21 5.95874e+21 0
8.96128e+21 5.06674e+21 0
7.99931e+21 2.33377e+21 0
6.09815e+21 1.421e+21 0
3.66698e+21 1.22673e+21 0
1.115e+21 6.49264e+20 0
-8.08964e+20 1.15189e+20 0
-1.35607e+21 5.1095e+19 0
-1.10834e+21 -2.90944e+19 0
-6.47781e+20 -6.11457e+20 0
-2.02349e+20 -8.75317e+20 0
0 0 0
0 0 0
-2.59702e+18 6.14153e+19 0
1.15915e+19 -3.45211e+19 0
1.7813e+19 -1.45194e+20 0
-8.68477e+18 -1.27991e+20 0
-5.31293e+18 -6.03644e+19 0
9.05176e+19 -1.97711e+19 0
1.68023e+20 -3.5318e+19 0
1.16419e+20 -1.36113e+20 0
-6.1741e+18 -2.3124e+20 0
-1.41635e+20 -2.29785e+20 0
-2.19979e+20 -1.78684e+20 0
-1.71219e+20 -1.24873e+20 0
-4.73358e+19 -4.35042e+19 0
9.96924e+19 9.02693e+19 0
2.08756e+20 2.0332e+20 0
2.18747e+20 2.2252e+20 0
1.69288e+20 1.98314e+20 0
1.00001e+20 1.81146e+20 0
4.09798e+19 1.54743e+20 0
2.23158e+19 1.02835e+20 0
2.75864e+19 4.89461e+19 0
4.0369e+19 1.65983e+19 0
4.50218e+19 1.06879e+19 0
2.59029e+19 3.61104e+19 0
5.32978e+18 5.25395e+19 0
5.61972e+18 1.96486e+19 0
1.47517e+19 -2.8551e+19 0
2.07047e+19 -5.80476e+19 0
2.03885e+19 -6.44689e+19 0
1.07126e+19 -4.34423e+19 0
5.75976e+18 -1.26722e+19 0
1.96125e+19 1.01367e+19 0
3.70567e+19 2.38656e+19 0
4.28783e+19 2.73955e+19 0
2.57134e+19 3.02553e+19 0
-2.58019e+19 4.19733e+19 0
-8.99229e+19 4.00615e+19 0
-1.44905e+20 2.03195e+18 0
-1.83487e+20 -5.46452e+19 0
-1.98405e+20 -1.125e+20 0
-1.85063e+20 -1.56919e+20 0
-1.38861e+20 -1.73289e+20 0
-6.79473e+19 -1.77278e+20 0
1.95308e+19 -1.84553e+20 0
6.61252e+19 -1.88139e+20 0
1.43877e+19 -1.81063e+20 0
-2.9366e+19 -2.83715e+20 0
4.11793e+19 -6.16488e+20 0
2.85121e+20 -6.87851e+20 0
7.61556e+20 -6.27552e+18 0
1.21819e+21 1.05337e+21 0
1.40271e+21 2.11622e+21 0
1.70409e+21 2.78432e+21 0
2.51125e+21 2.65969e+21 0
2.59008e+21 2.66328e+21 0
7.06444e+20 3.71603e+21 0
-1.47863e+21 3.99516e+21 0
-2.30411e+21 1.67788e+21 0
-1.98389e+21 -1.0784e+21 0
-7.31836e+20 -2.11631e+21 0
5.76759e+20 -1.83773e+21 0
1.06661e+21 -6.44541e+20 0
7.2422e+20 6.5813e+19 0
-4.63928e+20 -1.10411e+21 0
-1.99833e+21 -3.26088e+21 0
-3.3795e+21 -5.51105e+21 0
-3.15091e+21 -5.5584e+21 0
1.43963e+20 -1.10671e+21 0
3.95794e+21 3.9744e+21 0
5.74385e+21 5.81531e+21 0
5.60101e+21 5.54328e+21 0
3.62875e+21 4.28558e+21 0
1.18386e+21 2.62942e+21 0
-3.76866e+20 1.16206e+21 0
-1.12187e+21 1.35932e+20 0
-1.11956e+21 -1.96516e+20 0
-7.81598e+20 -5.60835e+20 0
-5.19617e+20 -1.68257e+21 0
-2.77717e+20 -2.01215e+21 0
0 0 0
0 0 0
3.17411e+18 4.25682e+19 0
-4.0645e+19 -3.15211e+19 0
-9.18743e+19 -1.28348e+20 0
-1.10931e+20 -1.53993e+20 0
-5.05818e+19 -1.42841e+20 0
1.36405e+20 -1.29277e+20 0
2.87723e+20 -1.10955e+20 0
2.41061e+20 -8.55307e+19 0
8.33709e+19 -6.57095e+19 0
-9.8396e+19 -6.41983e+19 0
-2.18471e+20 -9.11019e+19 0
-1.91085e+20 -1.56525e+20 0
-8.03e+19 -1.57198e+20 0
4.98239e+19 1.01481e+19 0
1.63801e+20 1.99316e+20 0
2.26145e+20 2.64105e+20 0
2.35029e+20 2.7147e+20 0
1.88628e+20 2.88365e+20 0
1.36358e+20 2.69814e+20 0
1.27638e+20 1.70842e+20 0
1.14798e+20 6.83625e+19 0
5.01698e+19 3.92859e+19 0
-2.51093e+19 5.14696e+19 0
-6.99001e+19 7.27708e+19 0
-7.69729e+19 6.87292e+19 0
-3.90976e+19 4.88463e+18 0
1.19555e+17 -6.60326e+19 0
-2.92741e+18 -9.12921e+19 0
-2.57604e+19 -8.03424e+19 0
-4.59013e+19 -4.26318e+19 0
-5.18341e+19 -3.34659e+18 0
-3.2043e+19 1.23271e+19 0
2.65526e+17 2.24009e+19 0
3.18847e+19 4.48869e+19 0
5.80945e+19 6.87373e+19 0
7.41744e+19 8.29049e+19 0
7.07643e+19 7.53166e+19 0
3.85037e+19 3.38997e+19 0
-1.15291e+19 -3.50075e+19 0
-6.82558e+19 -1.25066e+20 0
-1.04313e+20 -2.08186e+20 0
-9.23362e+19 -2.56274e+20 0
-4.38382e+19 -2.7936e+20 0
2.96697e+19 -2.87475e+20 0
8.03972e+19 -2.24959e+20 0
6.05541e+19 -3.61573e+19 0
4.07797e+19 1.35314e+19 0
9.17131e+19 -3.41293e+20 0
1.87099e+20 -5.13948e+20 0
3.00683e+20 8.22504e+19 0
3.59634e+20 8.18236e+20 0
2.91121e+20 1.06494e+21 0
3.28146e+20 1.2062e+21 0
7.03715e+20 1.62584e+21 0
9.6027e+20 2.51744e+21 0
6.40252e+20 4.07457e+21 0
1.04854e+20 4.48418e+21 0
-2.84733e+20 1.93318e+21 0
-4.44491e+20 -1.15613e+21 0
-2.90406e+20 -2.36148e+21 0
3.38124e+19 -2.15313e+21 0
3.84454e+20 -1.00133e+21 0
6.39694e+20 -2.12416e+19 0
6.7771e+20 -3.27995e+20 0
-4.58485e+19 -1.85697e+21 0
-2.07533e+21 -4.54353e+21 0
-3.68609e+21 -5.8894e+21 0
-3.15347e+21 -3.39632e+21 0
-1.40421e+21 1.068e+21 0
6.34946e+20 5.63582e+21 0
1.61016e+21 8.38519e+21 0
1.67613e+20 7.39415e+21 0
-1.7039e+21 4.51013e+21 0
-2.01555e+21 1.58055e+21 0
-1.46175e+21 -4.81293e+20 0
-7.36884e+20 -7.62131e+20 0
-2.0894e+20 -9.1132e+20 0
-2.4591e+20 -2.57822e+21 0
-3.44146e+20 -3.14654e+21 0
0 0 0
0 0 0
-5.62349e+19 5.54392e+19 0
-1.24752e+20 -1.73676e+19 0
-1.62876e+20 -1.45913e+20 0
-1.27929e+20 -2.57688e+20 0
-3.6037e+19 -3.07964e+20 0
9.66728e+19 -2.52014e+20 0
1.76619e+20 -1.45193e+20 0
1.10221e+20 -4.28579e+19 0
-2.9384e+19 3.59424e+19 0
-1.69058e+20 7.216e+19 0
-2.65167e+20 1.89112e+19 0
-2.74075e+20 -1.70687e+20 0
-2.27326e+20 -2.81995e+20 0
-1.56459e+20 -1.00371e+20 0
-5.06727e+19 1.70221e+20 0
1.00834e+20 3.25815e+20 0
2.1047e+20 3.7835e+20 0
1.90646e+20 3.39764e+20 0
1.35094e+20 2.5481e+20 0
1.37545e+20 1.68241e+20 0
1.11319e+20 1.14429e+20 0
-3.02635e+19 1.27743e+20 0
-1.95664e+20 1.511e+20 0
-2.93342e+20 1.27413e+20 0
-3.22081e+20 6.32016e+19 0
-2.80661e+20 -3.5016e+19 0
-2.17715e+20 -1.14211e+20 0
-1.81871e+20 -1.21354e+20 0
-1.54486e+20 -8.7913e+19 0
-1.16917e+20 -4.53581e+19 0
-7.42619e+19 -1.14242e+19 0
-3.16213e+19 -3.8468e+18 0
-1.32468e+18 8.39628e+18 0
4.29859e+18 5.63271e+19 0
-4.1598e+18 1.00764e+20 0
-1.61081e+19 1.02525e+20 0
-6.37769e+18 7.98458e+19 0
5.01999e+19 5.09602e+19 0
1.0733e+20 1.64728e+18 0
1.18717e+20 -8.23141e+19 0
9.98499e+19 -1.80732e+20 0
6.62181e+19 -2.73415e+20 0
2.40405e+19 -3.40681e+20 0
-2.04634e+19 -3.62851e+20 0
-9.48288e+19 -2.62694e+20 0
-2.26591e+20 3.70172e+19 0
-3.54159e+20 2.42574e+20 0
-4.15942e+20 6.02663e+19 0
-4.40821e+20 -5.75193e+19 0
-4.57674e+20 3.41603e+20 0
-5.00932e+20 7.19038e+20 0
-6.0502e+20 5.36188e+20 0
-6.79709e+20 3.97293e+20 0
-6.34766e+20 9.06592e+20 0
-3.95547e+20 1.78807e+21 0
1.12592e+20 2.76572e+21 0
6.0376e+20 2.90239e+21 0
7.92068e+20 1.26094e+21 0
7.0659e+20 -7.9493e+20 0
3.76401e+20 -1.90151e+21 0
8.26602e+19 -2.09856e+21 0
1.06524e+20 -1.42582e+21 0
4.30192e+20 -6.11196e+20 0
1.03587e+21 -3.82582e+20 0
1.08377e+21 -9.72848e+20 0
-2.6587e+20 -2.61486e+21 0
-2.32548e+21 -4.0546e+21 0
-4.4075e+21 -4.03805e+21 0
-5.19079e+21 -1.81945e+21 0
-3.35422e+21 3.34694e+21 0
-1.29589e+21 8.20005e+21 0
-1.41388e+21 9.47877e+21 0
-2.2768e+21 7.47132e+21 0
-2.45325e+21 2.46589e+21 0
-1.9535e+21 -1.826e+21 0
-7.8783e+20 -1.69285e+21 0
1.59881e+20 -7.65328e+20 0
5.74311e+18 -2.67409e+21 0
-3.48223e+20 -3.66902e+21 0
0 0 0
0 0 0
-1.00943e+20 8.13156e+19 0
-1.57848e+20 -1.75592e+18 0
-1.56673e+20 -1.7136e+20 0
-8.3378e+19 -3.49641e+20 0
-1.45431e+17 -4.32104e+20 0
3.08422e+19 -3.14252e+20 0
8.55523e+18 -1.26487e+20 0
-6.80362e+19 7.90472e+17 0
-1.54564e+20 8.70567e+19 0
-2.06662e+20 1.5179e+20 0
-2.48644e+20 1.07743e+20 0
-3.04828e+20 -1.32332e+20 0
-3.58825e+20 -3.06756e+20 0
-3.94249e+20 -1.53852e+20 0
-3.36117e+20 1.22155e+20 0
-1.09447e+20 3.17041e+20 0
1.06795e+20 3.87919e+20 0
1.33642e+20 2.91905e+20 0
9.05458e+19 1.64528e+20 0
9.6959e+19 1.41316e+20 0
5.61433e+19 1.7906e+20 0
-1.28639e+20 2.34549e+20 0
-3.36188e+20 2.49216e+20 0
-4.45301e+20 1.64493e+20 0
-4.6718e+20 3.41641e+19 0
-4.13024e+20 -8.79866e+19 0
-3.28387e+20 -1.62292e+20 0
-2.58821e+20 -1.49086e+20 0
-1.92067e+20 -9.68364e+19 0
-1.15864e+20 -5.40119e+19 0
-4.76435e+19 -2.43595e+19 0
-4.83964e+18 -1.16263e+19 0
5.04547e+18 1.53615e+19 0
-2.54906e+19 8.77777e+19 0
-7.92297e+19 1.47351e+20 0
-1.38954e+20 1.35809e+20 0
-1.45215e+20 9.64389e+19 0
-3.85655e+19 7.25272e+19 0
1.02189e+20 3.77693e+19 0
1.98245e+20 -3.41396e+19 0
2.33242e+20 -1.29686e+20 0
1.90823e+20 -2.35358e+20 0
9.00501e+19 -3.18824e+20 0
-5.00109e+19 -3.47755e+20 0
-2.45272e+20 -2.32374e+20 0
-5.11645e+20 1.17098e+20 0
-7.79039e+20 4.27506e+20 0
-9.7736e+20 4.25698e+20 0
-1.09449e+21 3.82807e+20 0
-1.11831e+21 5.69966e+20 0
-1.11564e+21 6.56099e+20 0
-1.1533e+21 3.10128e+20 0
-1.21657e+21 4.83948e+19 0
-1.29071e+21 3.87242e+20 0
-1.07386e+21 8.38088e+20 0
-2.6416e+20 9.12353e+20 0
6.7172e+20 6.80962e+20 0
1.26712e+21 2.14839e+20 0
1.41933e+21 -4.1932e+20 0
1.0256e+21 -1.15482e+21 0
4.49437e+20 -1.63836e+21 0
5.43144e+19 -1.51664e+21 0
4.7993e+19 -1.12906e+21 0
6.38231e+20 -8.15026e+20 0
1.16682e+21 -6.83665e+20 0
9.75551e+20 -8.44101e+20 0
-5.55788e+20 -1.60157e+21 0
-4.04741e+21 -3.26132e+21 0
-6.72682e+21 -3.36975e+21 0
-5.82155e+21 5.26731e+20 0
-3.52455e+21 5.83848e+21 0
-2.02881e+21 9.97585e+21 0
-1.41005e+21 1.0177e+22 0
-1.74402e+21 3.67996e+21 0
-1.91949e+21 -2.75442e+21 0
-8.25247e+20 -2.36541e+21 0
2.70088e+20 -4.44251e+20 0
9.78905e+19 -2.28219e+21 0
-3.29564e+20 -3.57039e+21 0
0 0 0
0 0 0
-5.10688e+19 1.01485e+20 0
-5.70472e+19 5.61891e+18 0
-3.47467e+19 -1.78162e+20 0
-9.78886e+17 -3.4042e+20 0
1.86258e+19 -3.91629e+20 0
-1.56327e+18 -2.42261e+20 0
-4.26271e+19 -4.32931e+19 0
-8.56466e+19 5.4299e+19 0
-1.02295e+20 1.00974e+20 0
-6.42471e+19 1.47192e+20 0
-5.74823e+19 1.3178e+20 0
-1.67982e+20 -6.43241e+18 0
-3.45212e+20 -1.20346e+20 0
-5.38643e+20 -6.28623e+19 0
-5.93987e+20 6.1237e+19 0
-3.5696e+20 1.4717e+20 0
-6.48136e+19 1.6914e+20 0
4.52001e+19 1.01349e+20 0
5.60747e+19 5.37649e+19 0
5.08038e+19 1.36352e+20 0
-1.17356e+19 2.54171e+20 0
-1.72666e+20 3.12283e+20 0
-3.16227e+20 2.85457e+20 0
-3.26655e+20 1.48467e+20 0
-2.49457e+20 -2.01759e+19 0
-1.30138e+20 -1.4196e+20 0
-2.15314e+19 -1.99484e+20 0
2.35272e+19 -1.75344e+20 0
3.52201e+19 -1.16768e+20 0
4.37289e+19 -7.09838e+19 0
4.19013e+19 -2.96068e+19 0
2.25852e+19 1.57473e+19 0
-7.86464e+18 7.68068e+19 0
-4.30932e+19 1.653e+20 0
-8.52954e+19 2.29513e+20 0
-1.36666e+20 2.1773e+20 0
-1.69612e+20 1.67886e+20 0
-1.56541e+20 1.17915e+20 0
-9.7851e+19 5.58088e+19 0
6.06113e+18 -3.04395e+19 0
1.01682e+20 -1.10177e+20 0
1.35498e+20 -1.52749e+20 0
1.08552e+20 -1.71372e+20 0
2.18849e+19 -1.79263e+20 0
-1.56652e+20 -6.50298e+19 0
-4.59209e+20 2.8272e+20 0
-7.98718e+20 5.92421e+20 0
-1.08811e+21 5.92508e+20 0
-1.26976e+21 5.08402e+20 0
-1.28601e+21 5.65522e+20 0
-1.23662e+21 5.29743e+20 0
-1.22132e+21 1.66939e+20 0
-1.17953e+21 -1.49681e+20 0
-1.05062e+21 -4.69088e+19 0
-6.71137e+20 3.03963e+19 0
1.22374e+20 -3.62623e+20 0
9.62361e+20 -7.48913e+20 0
1.48127e+21 -6.51418e+20 0
1.64369e+21 -4.53818e+20 0
1.41421e+21 -5.39791e+20 0
8.60277e+20 -7.36821e+20 0
4.93173e+19 -8.72391e+20 0
-5.54622e+20 -9.99833e+20 0
-4.87496e+20 -1.17248e+21 0
-2.03942e+19 -1.06456e+21 0
5.75597e+20 -3.503e+20 0
1.36298e+20 -7.7896e+19 0
-2.50247e+21 -1.29554e+21 0
-5.33733e+21 -2.26468e+21 0
-6.36492e+21 -1.24677e+21 0
-5.48323e+21 2.15108e+21 0
-2.59025e+21 8.32178e+21 0
2.114e+19 1.12911e+22 0
5.80681e+19 5.08462e+21 0
-6.82097e+20 -2.12281e+21 0
-4.01984e+20 -2.15654e+21 0
6.69071e+19 -2.69483e+20 0
-1.06922e+20 -1.71452e+21 0
-3.27786e+20 -2.84143e+21 0
0 0 0
0 0 0
2.89096e+19 9.82124e+19 0
7.43189e+19 1.38884e+19 0
1.00375e+20 -1.42294e+20 0
7.12259e+19 -2.59659e+20 0
2.05062e+19 -2.7505e+20 0
-1.81479e+19 -1.25314e+20 0
-4.17441e+19 4.7892e+19 0
-4.72899e+19 1.02912e+20 0
-2.26661e+19 1.06812e+20 0
4.42468e+19 1.26659e+20 0
5.58544e+19 1.45331e+20 0
-8.54376e+19 1.45706e+20 0
-3.20157e+20 1.17421e+20 0
-5.88832e+20 5.01089e+19 0
-7.0719e+20 -2.75786e+19 0
-4.90959e+20 -8.69919e+19 0
-1.82935e+20 -1.18601e+20 0
-2.59158e+19 -1.12878e+20 0
2.109e+19 -3.61784e+19 0
-9.28162e+17 1.45138e+20 0
-7.08343e+19 3.11533e+20 0
-1.67493e+20 3.43468e+20 0
-2.06165e+20 2.6048e+20 0
-1.02112e+20 8.21084e+19 0
6.97005e+19 -1.00543e+20 0
2.34309e+20 -1.96371e+20 0
3.38232e+20 -2.20071e+20 0
3.27987e+20 -1.86337e+20 0
2.54986e+20 -1.27754e+20 0
1.70638e+20 -7.69062e+19 0
8.90339e+19 -2.19042e+19 0
2.42601e+19 4.91411e+19 0
-1.5458e+19 1.31834e+20 0
-2.1896e+19 2.21779e+20 0
-1.79645e+19 2.84067e+20 0
-2.65742e+19 2.8379e+20 0
-6.11232e+19 2.40979e+20 0
-1.35009e+20 1.75662e+20 0
-1.86194e+20 8.70267e+19 0
-1.52639e+20 -2.57427e+19 0
-7.22735e+19 -1.08275e+20 0
1.69708e+19 -1.06198e+20 0
9.65646e+19 -7.05479e+19 0
1.47979e+20 -5.2362e+19 0
9.9654e+19 5.8516e+19 0
-1.19967e+20 3.72242e+20 0
-4.38416e+20 6.48425e+20 0
-7.83223e+20 6.46678e+20 0
-1.036e+21 5.63209e+20 0
-1.07835e+21 5.94232e+20 0
-1.0138e+21 5.35933e+20 0
-9.45883e+20 1.84499e+20 0
-7.92958e+20 -2.25406e+20 0
-4.73392e+20 -4.59116e+20 0
2.3194e+18 -7.0714e+20 0
6.23683e+20 -1.15999e+21 0
1.1546e+21 -1.43229e+21 0
1.35898e+21 -1.13869e+21 0
1.36664e+21 -5.82427e+20 0
1.30739e+21 -6.67231e+19 0
9.17711e+20 2.10859e+20 0
-6.59371e+19 5.27602e+19 0
-1.06462e+21 -4.9316e+20 0
-1.49938e+21 -1.37904e+21 0
-1.30223e+21 -1.77335e+21 0
-4.05133e+20 -8.44544e+20 0
1.04787e+20 3.22936e+20 0
-8.59579e+20 6.44649e+20 0
-2.8881e+21 5.86179e+19 0
-5.57065e+21 -1.49713e+21 0
-6.53444e+21 -7.50844e+20 0
-3.40669e+21 5.56925e+21 0
3.26725e+20 1.01259e+22 0
1.17992e+21 5.58168e+21 0
6.76095e+20 -6.60311e+20 0
3.38434e+20 -1.19715e+21 0
8.51662e+19 -2.15331e+19 0
-1.65486e+20 -1.12613e+21 0
-2.48786e+20 -1.96695e+21 0
0 0 0
0 0 0
7.4514e+19 5.37632e+19 0
1.32921e+20 3.21841e+19 0
1.46166e+20 -3.97345e+19 0
8.51934e+19 -1.3699e+20 0
5.72543e+18 -1.70874e+20 0
-3.65157e+19 -5.26813e+19 0
-5.36121e+19 9.05733e+19 0