<?xml version="1.0"?>
<VTKFile type="UnstructuredGrid">
  <UnstructuredGrid>
  <Piece NumberOfPoints="3321"  NumberOfCells="1600">
    <Points>
      <DataArray type="Float64" NumberOfComponents="3" format="ascii">
0 0 0.1
1 0 0.1
1 0.5 0.1
0 0.5 0.1
0.025 0 0.1
0.05 0 0.1
0.075 0 0.1
0.1 0 0.1
0.125 0 0.1
0.15 0 0.1
0.175 0 0.1
0.2 0 0.1
0.225 0 0.1
0.25 0 0.1
0.275 0 0.1
0.3 0 0.1
0.325 0 0.1
0.35 0 0.1
0.375 0 0.1
0.4 0 0.1
0.425 0 0.1
0.45 0 0.1
0.475 0 0.1
0.5 0 0.1
0.525 0 0.1
0.55 0 0.1
0.575 0 0.1
0.6 0 0.1
0.625 0 0.1
0.65 0 0.1
0.675 0 0.1
0.7 0 0.1
0.725 0 0.1
0.75 0 0.1
0.775 0 0.1
0.8 0 0.1
0.825 0 0.1
0.85 0 0.1
0.875 0 0.1
0.9 0 0.1
0.925 0 0.1
0.95 0 0.1
0.975 0 0.1
0.0125 0 0.1
0.0375 0 0.1
0.0625 0 0.1
0.0875 0 0.1
0.1125 0 0.1
0.1375 0 0.1
0.1625 0 0.1
0.1875 0 0.1
0.2125 0 0.1
0.2375 0 0.1
0.2625 0 0.1
0.2875 0 0.1
0.3125 0 0.1
0.3375 0 0.1
0.3625 0 0.1
0.3875 0 0.1
0.4125 0 0.1
0.4375 0 0.1
0.4625 0 0.1
0.4875 0 0.1
0.5125 0 0.1
0.5375 0 0.1
0.5625 0 0.1
0.5875 0 0.1
0.6125 0 0.1
0.6375 0 0.1
0.6625 0 0.1
0.6875 0 0.1
0.7125 0 0.1
0.7375 0 0.1
0.7625 0 0.1
0.7875 0 0.1
0.8125 0 0.1
0.8375 0 0.1
0.8625 0 0.1
0.8875 0 0.1
0.9125 0 0.1
0.9375 0 0.1
0.9625 0 0.1
0.9875 0 0.1
1 0.025 0.1
1 0.05 0.1
1 0.075 0.1
1 0.1 0.1
1 0.125 0.1
1 0.15 0.1
1 0.175 0.1
1 0.2 0.1
1 0.225 0.1
1 0.25 0.1
1 0.275 0.1
1 0.3 0.1
1 0.325 0.1
1 0.35 0.1
1 0.375 0.1
1 0.4 0.1
1 0.425 0.1
1 0.45 0.1
1 0.475 0.1
1 0.0125 0.1
1 0.0375 0.1
1 0.0625 0.1
1 0.0875 0.1
1 0.1125 0.1
1 0.1375 0.1
1 0.1625 0.1
1 0.1875 0.1
1 0.2125 0.1
1 0.2375 0.1
1 0.2625 0.1
1 0.2875 0.1
1 0.3125 0.1
1 0.3375 0.1
1 0.3625 0.1
1 0.3875 0.1
1 0.4125 0.1
1 0.4375 0.1
1 0.4625 0.1
1 0.4875 0.1
0.975 0.5 0.1
0.95 0.5 0.1
0.925 0.5 0.1
0.9 0.5 0.1
0.875 0.5 0.1
0.85 0.5 0.1
0.825 0.5 0.1
0.8 0.5 0.1
0.775 0.5 0.1
0.75 0.5 0.1
0.725 0.5 0.1
0.7 0.5 0.1
0.675 0.5 0.1
0.65 0.5 0.1
0.625 0.5 0.1
0.6 0.5 0.1
0.575 0.5 0.1
0.55 0.5 0.1
0.525 0.5 0.1
0.5 0.5 0.1
0.475 0.5 0.1
0.45 0.5 0.1
0.425 0.5 0.1
0.4 0.5 0.1
0.375 0.5 0.1
0.35 0.5 0.1
0.325 0.5 0.1
0.3 0.5 0.1
0.275 0.5 0.1
0.25 0.5 0.1
0.225 0.5 0.1
0.2 0.5 0.1
0.175 0.5 0.1
0.15 0.5 0.1
0.125 0.5 0.1
0.1 0.5 0.1
0.075 0.5 0.1
0.05 0.5 0.1
0.025 0.5 0.1
0.9875 0.5 0.1
0.9625 0.5 0.1
0.9375 0.5 0.1
0.9125 0.5 0.1
0.8875 0.5 0.1
0.8625 0.5 0.1
0.8375 0.5 0.1
0.8125 0.5 0.1
0.7875 0.5 0.1
0.7625 0.5 0.1
0.7375 0.5 0.1
0.7125 0.5 0.1
0.6875 0.5 0.1
0.6625 0.5 0.1
0.6375 0.5 0.1
0.6125 0.5 0.1
0.5875 0.5 0.1
0.5625 0.5 0.1
0.5375 0.5 0.1
0.5125 0.5 0.1
0.4875 0.5 0.1
0.4625 0.5 0.1
0.4375 0.5 0.1
0.4125 0.5 0.1
0.3875 0.5 0.1
0.3625 0.5 0.1
0.3375 0.5 0.1
0.3125 0.5 0.1
0.2875 0.5 0.1
0.2625 0.5 0.1
0.2375 0.5 0.1
0.2125 0.5 0.1
0.1875 0.5 0.1
0.1625 0.5 0.1
0.1375 0.5 0.1
0.1125 0.5 0.1
0.0875 0.5 0.1
0.0625 0.5 0.1
0.0375 0.5 0.1
0.0125 0.5 0.1
0 0.475 0.1
0 0.45 0.1
0 0.425 0.1
0 0.4 0.1
0 0.375 0.1
0 0.35 0.1
0 0.325 0.1
0 0.3 0.1
0 0.275 0.1
0 0.25 0.1
0 0.225 0.1
0 0.2 0.1
0 0.175 0.1
0 0.15 0.1
0 0.125 0.1
0 0.1 0.1
0 0.075 0.1
0 0.05 0.1
0 0.025 0.1
0 0.4875 0.1
0 0.4625 0.1
0 0.4375 0.1
0 0.4125 0.1
0 0.3875 0.1
0 0.3625 0.1
0 0.3375 0.1
0 0.3125 0.1
0 0.2875 0.1
0 0.2625 0.1
0 0.2375 0.1
0 0.2125 0.1
0 0.1875 0.1
0 0.1625 0.1
0 0.1375 0.1
0 0.1125 0.1
0 0.0875 0.1
0 0.0625 0.1
0 0.0375 0.1
0 0.0125 0.1
0.975 0.475 0.1
0.975 0.45 0.1
0.975 0.425 0.1
0.975 0.4 0.1
0.975 0.375 0.1
0.975 0.35 0.1
0.975 0.325 0.1
0.975 0.3 0.1
0.975 0.275 0.1
0.975 0.25 0.1
0.975 0.225 0.1
0.975 0.2 0.1
0.975 0.175 0.1
0.975 0.15 0.1
0.975 0.125 0.1
0.975 0.1 0.1
0.975 0.075 0.1
0.975 0.05 0.1
0.975 0.025 0.1
0.95 0.475 0.1
0.95 0.45 0.1
0.95 0.425 0.1
0.95 0.4 0.1
0.95 0.375 0.1
0.95 0.35 0.1
0.95 0.325 0.1
0.95 0.3 0.1
0.95 0.275 0.1
0.95 0.25 0.1
0.95 0.225 0.1
0.95 0.2 0.1
0.95 0.175 0.1
0.95 0.15 0.1
0.95 0.125 0.1
0.95 0.1 0.1
0.95 0.075 0.1
0.95 0.05 0.1
0.95 0.025 0.1
0.925 0.475 0.1
0.925 0.45 0.1
0.925 0.425 0.1
0.925 0.4 0.1
0.925 0.375 0.1
0.925 0.35 0.1
0.925 0.325 0.1
0.925 0.3 0.1
0.925 0.275 0.1
0.925 0.25 0.1
0.925 0.225 0.1
0.925 0.2 0.1
0.925 0.175 0.1
0.925 0.15 0.1
0.925 0.125 0.1
0.925 0.1 0.1
0.925 0.075 0.1
0.925 0.05 0.1
0.925 0.025 0.1
0.9 0.475 0.1
0.9 0.45 0.1
0.9 0.425 0.1
0.9 0.4 0.1
0.9 0.375 0.1
0.9 0.35 0.1
0.9 0.325 0.1
0.9 0.3 0.1
0.9 0.275 0.1
0.9 0.25 0.1
0.9 0.225 0.1
0.9 0.2 0.1
0.9 0.175 0.1
0.9 0.15 0.1
0.9 0.125 0.1
0.9 0.1 0.1
0.9 0.075 0.1
0.9 0.05 0.1
0.9 0.025 0.1
0.875 0.475 0.1
0.875 0.45 0.1
0.875 0.425 0.1
0.875 0.4 0.1
0.875 0.375 0.1
0.875 0.35 0.1
0.875 0.325 0.1
0.875 0.3 0.1
0.875 0.275 0.1
0.875 0.25 0.1
0.875 0.225 0.1
0.875 0.2 0.1
0.875 0.175 0.1
0.875 0.15 0.1
0.875 0.125 0.1
0.875 0.1 0.1
0.875 0.075 0.1
0.875 0.05 0.1
0.875 0.025 0.1
0.85 0.475 0.1
0.85 0.45 0.1
0.85 0.425 0.1
0.85 0.4 0.1
0.85 0.375 0.1
0.85 0.35 0.1
0.85 0.325 0.1
0.85 0.3 0.1
0.85 0.275 0.1
0.85 0.25 0.1
0.85 0.225 0.1
0.85 0.2 0.1
0.85 0.175 0.1
0.85 0.15 0.1
0.85 0.125 0.1
0.85 0.1 0.1
0.85 0.075 0.1
0.85 0.05 0.1
0.85 0.025 0.1
0.825 0.475 0.1
0.825 0.45 0.1
0.825 0.425 0.1
0.825 0.4 0.1
0.825 0.375 0.1
0.825 0.35 0.1
0.825 0.325 0.1
0.825 0.3 0.1
0.825 0.275 0.1
0.825 0.25 0.1
0.825 0.225 0.1
0.825 0.2 0.1
0.825 0.175 0.1
0.825 0.15 0.1
0.825 0.125 0.1
0.825 0.1 0.1
0.825 0.075 0.1
0.825 0.05 0.1
0.825 0.025 0.1
0.8 0.475 0.1
0.8 0.45 0.1
0.8 0.425 0.1
0.8 0.4 0.1
0.8 0.375 0.1
0.8 0.35 0.1
0.8 0.325 0.1
0.8 0.3 0.1
0.8 0.275 0.1
0.8 0.25 0.1
0.8 0.225 0.1
0.8 0.2 0.1
0.8 0.175 0.1
0.8 0.15 0.1
0.8 0.125 0.1
0.8 0.1 0.1
0.8 0.075 0.1
0.8 0.05 0.1
0.8 0.025 0.1
0.775 0.475 0.1
0.775 0.45 0.1
0.775 0.425 0.1
0.775 0.4 0.1
0.775 0.375 0.1
0.775 0.35 0.1
0.775 0.325 0.1
0.775 0.3 0.1
0.775 0.275 0.1
0.775 0.25 0.1
0.775 0.225 0.1
0.775 0.2 0.1
0.775 0.175 0.1
0.775 0.15 0.1
0.775 0.125 0.1
0.775 0.1 0.1
0.775 0.075 0.1
0.775 0.05 0.1
0.775 0.025 0.1
0.75 0.475 0.1
0.75 0.45 0.1
0.75 0.425 0.1
0.75 0.4 0.1
0.75 0.375 0.1
0.75 0.35 0.1
0.75 0.325 0.1
0.75 0.3 0.1
0.75 0.275 0.1
0.75 0.25 0.1
0.75 0.225 0.1
0.75 0.2 0.1
0.75 0.175 0.1
0.75 0.15 0.1
0.75 0.125 0.1
0.75 0.1 0.1
0.75 0.075 0.1
0.75 0.05 0.1
0.75 0.025 0.1
0.725 0.475 0.1
0.725 0.45 0.1
0.725 0.425 0.1
0.725 0.4 0.1
0.725 0.375 0.1
0.725 0.35 0.1
0.725 0.325 0.1
0.725 0.3 0.1
0.725 0.275 0.1
0.725 0.25 0.1
0.725 0.225 0.1
0.725 0.2 0.1
0.725 0.175 0.1
0.725 0.15 0.1
0.725 0.125 0.1
0.725 0.1 0.1
0.725 0.075 0.1
0.725 0.05 0.1
0.725 0.025 0.1
0.7 0.475 0.1
0.7 0.45 0.1
0.7 0.425 0.1
0.7 0.4 0.1
0.7 0.375 0.1
0.7 0.35 0.1
0.7 0.325 0.1
0.7 0.3 0.1
0.7 0.275 0.1
0.7 0.25 0.1
0.7 0.225 0.1
0.7 0.2 0.1
0.7 0.175 0.1
0.7 0.15 0.1
0.7 0.125 0.1
0.7 0.1 0.1
0.7 0.075 0.1
0.7 0.05 0.1
0.7 0.025 0.1
0.675 0.475 0.1
0.675 0.45 0.1
0.675 0.425 0.1
0.675 0.4 0.1
0.675 0.375 0.1
0.675 0.35 0.1
0.675 0.325 0.1
0.675 0.3 0.1
0.675 0.275 0.1
0.675 0.25 0.1
0.675 0.225 0.1
0.675 0.2 0.1
0.675 0.175 0.1
0.675 0.15 0.1
0.675 0.125 0.1
0.675 0.1 0.1
0.675 0.075 0.1
0.675 0.05 0.1
0.675 0.025 0.1
0.65 0.475 0.1
0.65 0.45 0.1
0.65 0.425 0.1
0.65 0.4 0.1
0.65 0.375 0.1
0.65 0.35 0.1
0.65 0.325 0.1
0.65 0.3 0.1
0.65 0.275 0.1
0.65 0.25 0.1
0.65 0.225 0.1
0.65 0.2 0.1
0.65 0.175 0.1
0.65 0.15 0.1
0.65 0.125 0.1
0.65 0.1 0.1
0.65 0.075 0.1
0.65 0.05 0.1
0.65 0.025 0.1
0.625 0.475 0.1
0.625 0.45 0.1
0.625 0.425 0.1
0.625 0.4 0.1
0.625 0.375 0.1
0.625 0.35 0.1
0.625 0.325 0.1
0.625 0.3 0.1
0.625 0.275 0.1
0.625 0.25 0.1
0.625 0.225 0.1
0.625 0.2 0.1
0.625 0.175 0.1
0.625 0.15 0.1
0.625 0.125 0.1
0.625 0.1 0.1
0.625 0.075 0.1
0.625 0.05 0.1
0.625 0.025 0.1
0.6 0.475 0.1
0.6 0.45 0.1
0.6 0.425 0.1
0.6 0.4 0.1
0.6 0.375 0.1
0.6 0.35 0.1
0.6 0.325 0.1
0.6 0.3 0.1
0.6 0.275 0.1
0.6 0.25 0.1
0.6 0.225 0.1
0.6 0.2 0.1
0.6 0.175 0.1
0.6 0.15 0.1
0.6 0.125 0.1
0.6 0.1 0.1
0.6 0.075 0.1
0.6 0.05 0.1
0.6 0.025 0.1
0.575 0.475 0.1
0.575 0.45 0.1
0.575 0.425 0.1
0.575 0.4 0.1
0.575 0.375 0.1
0.575 0.35 0.1
0.575 0.325 0.1
0.575 0.3 0.1
0.575 0.275 0.1
0.575 0.25 0.1
0.575 0.225 0.1
0.575 0.2 0.1
0.575 0.175 0.1
0.575 0.15 0.1
0.575 0.125 0.1
0.575 0.1 0.1
0.575 0.075 0.1
0.575 0.05 0.1
0.575 0.025 0.1
0.55 0.475 0.1
0.55 0.45 0.1
0.55 0.425 0.1
0.55 0.4 0.1
0.55 0.375 0.1
0.55 0.35 0.1
0.55 0.325 0.1
0.55 0.3 0.1
0.55 0.275 0.1
0.55 0.25 0.1
0.55 0.225 0.1
0.55 0.2 0.1
0.55 0.175 0.1
0.55 0.15 0.1
0.55 0.125 0.1
0.55 0.1 0.1
0.55 0.075 0.1
0.55 0.05 0.1
0.55 0.025 0.1
0.525 0.475 0.1
0.525 0.45 0.1
0.525 0.425 0.1
0.525 0.4 0.1
0.525 0.375 0.1
0.525 0.35 0.1
0.525 0.325 0.1
0.525 0.3 0.1
0.525 0.275 0.1
0.525 0.25 0.1
0.525 0.225 0.1
0.525 0.2 0.1
0.525 0.175 0.1
0.525 0.15 0.1
0.525 0.125 0.1
0.525 0.1 0.1
0.525 0.075 0.1
0.525 0.05 0.1
0.525 0.025 0.1
0.5 0.475 0.1
0.5 0.45 0.1
0.5 0.425 0.1
0.5 0.4 0.1
0.5 0.375 0.1
0.5 0.35 0.1
0.5 0.325 0.1
0.5 0.3 0.1
0.5 0.275 0.1
0.5 0.25 0.1
0.5 0.225 0.1
0.5 0.2 0.1
0.5 0.175 0.1
0.5 0.15 0.1
0.5 0.125 0.1
0.5 0.1 0.1
0.5 0.075 0.1
0.5 0.05 0.1
0.5 0.025 0.1
0.475 0.475 0.1
0.475 0.45 0.1
0.475 0.425 0.1
0.475 0.4 0.1
0.475 0.375 0.1
0.475 0.35 0.1
0.475 0.325 0.1
0.475 0.3 0.1
0.475 0.275 0.1
0.475 0.25 0.1
0.475 0.225 0.1
0.475 0.2 0.1
0.475 0.175 0.1
0.475 0.15 0.1
0.475 0.125 0.1
0.475 0.1 0.1
0.475 0.075 0.1
0.475 0.05 0.1
0.475 0.025 0.1
0.45 0.475 0.1
0.45 0.45 0.1
0.45 0.425 0.1
0.45 0.4 0.1
0.45 0.375 0.1
0.45 0.35 0.1
0.45 0.325 0.1
0.45 0.3 0.1
0.45 0.275 0.1
0.45 0.25 0.1
0.45 0.225 0.1
0.45 0.2 0.1
0.45 0.175 0.1
0.45 0.15 0.1
0.45 0.125 0.1
0.45 0.1 0.1
0.45 0.075 0.1
0.45 0.05 0.1
0.45 0.025 0.1
0.425 0.475 0.1
0.425 0.45 0.1
0.425 0.425 0.1
0.425 0.4 0.1
0.425 0.375 0.1
0.425 0.35 0.1
0.425 0.325 0.1
0.425 0.3 0.1
0.425 0.275 0.1
0.425 0.25 0.1
0.425 0.225 0.1
0.425 0.2 0.1
0.425 0.175 0.1
0.425 0.15 0.1
0.425 0.125 0.1
0.425 0.1 0.1
0.425 0.075 0.1
0.425 0.05 0.1
0.425 0.025 0.1
0.4 0.475 0.1
0.4 0.45 0.1
0.4 0.425 0.1
0.4 0.4 0.1
0.4 0.375 0.1
0.4 0.35 0.1
0.4 0.325 0.1
0.4 0.3 0.1
0.4 0.275 0.1
0.4 0.25 0.1
0.4 0.225 0.1
0.4 0.2 0.1
0.4 0.175 0.1
0.4 0.15 0.1
0.4 0.125 0.1
0.4 0.1 0.1
0.4 0.075 0.1
0.4 0.05 0.1
0.4 0.025 0.1
0.375 0.475 0.1
0.375 0.45 0.1
0.375 0.425 0.1
0.375 0.4 0.1
0.375 0.375 0.1
[...]
    <PointData>
      <DataArray type="Float64" NumberOfComponents="3" Name="Velocity" format="ascii">
0 0 0
0 0 0
0 0 0
0 0 0
0 0 0
0 0 0
0 0 0
0 0 0
0 0 0
0 0 0
0 0 0
0 0 0
0 0 0
0 0 0
0 0 0
0 0 0
0 0 0
0 0 0
0 0 0
0 0 0
0 0 0
0 0 0
0 0 0
0 0 0
0 0 0
0 0 0
0 0 0
0 0 0
0 0 0
0 0 0
0 0 0
0 0 0
0 0 0
0 0 0
0 0 0
0 0 0
0 0 0
0 0 0
0 0 0
0 0 0
0 0 0
0 0 0
0 0 0
0 0 0
0 0 0
0 0 0
0 0 0
0 0 0
0 0 0
0 0 0
0 0 0
0 0 0
0 0 0
0 0 0
0 0 0
0 0 0
0 0 0
0 0 0
0 0 0
0 0 0
0 0 0
0 0 0
0 0 0
0 0 0
0 0 0
0 0 0
0 0 0
0 0 0
0 0 0
0 0 0
0 0 0
0 0 0
0 0 0
0 0 0
0 0 0
0 0 0
0 0 0
0 0 0
0 0 0
0 0 0
0 0 0
0 0 0
0 0 0
0 0 0
0 0 0
0 0 0
0 0 0
0 0 0
0 0 0
0 0 0
0 0 0
0 0 0
0 0 0
0 0 0
0 0 0
0 0 0
0 0 0
0 0 0
0 0 0
0 0 0
0 0 0
0 0 0
0 0 0
0 0 0
0 0 0
0 0 0
0 0 0
0 0 0
0 0 0
0 0 0
0 0 0
0 0 0
0 0 0
0 0 0
0 0 0
0 0 0
0 0 0
0 0 0
0 0 0
0 0 0
0 0 0
0 0 0
-0.00283128 -0.0420797 0
-0.00996019 -0.0772355 0
-0.0204263 -0.10635 0
-0.0325535 -0.130018 0
-0.046404 -0.148428 0
-0.0615575 -0.161186 0
-0.0766636 -0.168907 0
-0.0915469 -0.171728 0
-0.105878 -0.170075 0
-0.119051 -0.164788 0
-0.130987 -0.15591 0
-0.141517 -0.144086 0
-0.150515 -0.129648 0
-0.158189 -0.113026 0
-0.164461 -0.0950285 0
-0.169239 -0.0757101 0
-0.172679 -0.0555694 0
-0.17469 -0.0350075 0
-0.175392 -0.0142287 0
-0.174862 0.00622032 0
-0.173114 0.0263495 0
-0.170225 0.0461017 0
-0.16617 0.06507 0
-0.160886 0.0831909 0
-0.154442 0.100154 0
-0.146841 0.115681 0
-0.138142 0.129679 0
-0.128409 0.141589 0
-0.117593 0.151175 0
-0.105855 0.158131 0
-0.0933884 0.161993 0
-0.0802027 0.162674 0
-0.0667181 0.159565 0
-0.0534441 0.152105 0
-0.0408106 0.139584 0
-0.02885 0.121598 0
-0.0181537 0.0984173 0
-0.00920672 0.0700083 0
-0.00312627 0.0362048 0
-0.00124328 -0.0205458 0
-0.00592054 -0.0604451 0
-0.0149802 -0.092534 0
-0.0263437 -0.118909 0
-0.0393368 -0.139962 0
-0.0540138 -0.155605 0
-0.069213 -0.165813 0
-0.0842314 -0.171091 0
-0.0989121 -0.171589 0
-0.112684 -0.168086 0
-0.125236 -0.160932 0
-0.136483 -0.15049 0
-0.146243 -0.137343 0
-0.154555 -0.121708 0
-0.161548 -0.104339 0
-0.16706 -0.0856715 0
-0.171168 -0.0658543 0
-0.173899 -0.0455041 0
-0.175237 -0.0247603 0
-0.175304 -0.00404222 0
-0.17415 0.01626 0
-0.171821 0.0362678 0
-0.168352 0.0556676 0
-0.163672 0.0742432 0
-0.157795 0.0918607 0
-0.150767 0.108124 0
-0.142595 0.122954 0
-0.133375 0.135962 0
-0.123088 0.146734 0
-0.111776 0.155081 0
-0.0996767 0.160497 0
-0.0868283 0.162788 0
-0.073431 0.161665 0
-0.0600103 0.156442 0
-0.0470385 0.146577 0
-0.0346797 0.131299 0
-0.0232859 0.110691 0
-0.0133683 0.084926 0
-0.00569397 0.0538753 0
-0.00293617 0.0169901 0
0 0 0
0 0 0
0 0 0
0 0 0
0 0 0
0 0 0
0 0 0
0 0 0
0 0 0
0 0 0
0 0 0
0 0 0
0 0 0
0 0 0
0 0 0
0 0 0
0 0 0
0 0 0
0 0 0
0 0 0
0 0 0
0 0 0
0 0 0
0 0 0
0 0 0
0 0 0
0 0 0
0 0 0
0 0 0
0 0 0
0 0 0
0 0 0
0 0 0
0 0 0
0 0 0
0 0 0
0 0 0
0 0 0
0 0 0
-0.00445932 -0.0360628 0
-0.0043868 -0.0311003 0
-0.00377785 -0.026171 0
-0.0024931 -0.022207 0
-0.00187512 -0.0193168 0
-0.00162931 -0.016675 0
-0.00148091 -0.0142092 0
-0.00135555 -0.0119249 0
-0.00123535 -0.00982614 0
-0.00111568 -0.00791471 0
-0.000994538 -0.0061922 0
-0.000870256 -0.00466187 0
-0.0007411 -0.00332958 0
-0.000605571 -0.00220395 0
-0.000463174 -0.00129593 0
-0.00031598 -0.000617474 0
-0.000169986 -0.00017928 0
-2.89801e-05 2.45641e-05 0
5.97575e-05 5.19479e-05 0
-0.0107615 -0.0664775 0
-0.010684 -0.0578013 0
-0.00963206 -0.050209 0
-0.00757986 -0.043606 0
-0.00627538 -0.0379045 0
-0.00557678 -0.0326523 0
-0.00507465 -0.0278524 0
-0.00463653 -0.0234648 0
-0.00422162 -0.0194626 0
-0.0038148 -0.0158302 0
-0.00340782 -0.0125607 0
-0.00299414 -0.00965341 0
-0.00256775 -0.00711371 0
-0.00212376 -0.0049515 0
-0.00166008 -0.00317964 0
-0.00118074 -0.00181069 0
-0.000701625 -0.000849952 0
-0.000263747 -0.000279346 0
3.17393e-05 -3.72124e-05 0
-0.0197377 -0.0925092 0
-0.0189982 -0.0811707 0
-0.0173972 -0.071327 0
-0.0149601 -0.0626364 0
-0.0130801 -0.0547263 0
-0.0117479 -0.0472802 0
-0.0106812 -0.0404526 0
-0.00973925 -0.0342227 0
-0.00885795 -0.0285504 0
-0.00800493 -0.0234062 0
-0.0071603 -0.018773 0
-0.0063091 -0.014644 0
-0.00543894 -0.0110202 0
-0.0045405 -0.0079087 0
-0.00361022 -0.00531929 0
-0.0026559 -0.00326103 0
-0.00170701 -0.00173521 0
-0.000833716 -0.000725077 0
-0.000177965 -0.000183731 0
-0.0309583 -0.113914 0
-0.0293268 -0.100677 0
-0.0270461 -0.0890388 0
-0.0242076 -0.078634 0
-0.0218227 -0.0690867 0
-0.0197814 -0.0599908 0
-0.0180203 -0.0515608 0
-0.0164331 -0.0438243 0
-0.0149473 -0.0367584 0
-0.013516 -0.0303361 0
-0.0121074 -0.0245376 0
-0.010697 -0.0193522 0
-0.00926526 -0.0147768 0
-0.00779801 -0.0108143 0
-0.00629013 -0.00747136 0
-0.00475251 -0.00475443 0
-0.00322434 -0.00266589 0
-0.00179276 -0.00119816 0
-0.000622557 -0.000326803 0
-0.0438286 -0.130586 0
-0.0412352 -0.116086 0
-0.0382848 -0.103186 0
-0.0349417 -0.09146 0
-0.0319695 -0.0807456 0
-0.0292195 -0.0704788 0
-0.0267228 -0.0608675 0
-0.0244162 -0.0519786 0
-0.0222366 -0.0438165 0
-0.0201338 -0.0363675 0
-0.0180686 -0.0296164 0
-0.0160089 -0.0235528 0
-0.0139288 -0.0181719 0
-0.0118091 -0.0134742 0
-0.00964211 -0.00946474 0
-0.00743895 -0.00615066 0
-0.00524174 -0.00354027 0
-0.00314189 -0.00164157 0
-0.00130496 -0.000461403 0
-0.0577132 -0.142565 0
-0.0541591 -0.127411 0
-0.0506249 -0.113789 0
-0.0467665 -0.10124 0
-0.0431023 -0.0897136 0
-0.0396557 -0.0786334 0
-0.0364233 -0.0682016 0
-0.0333707 -0.0584935 0
-0.0304526 -0.0495304 0
-0.0276242 -0.0413116 0
-0.0248446 -0.0338296 0
-0.0220774 -0.0270772 0
-0.0192915 -0.0210507 0
-0.0164631 -0.0157509 0
-0.0135802 -0.0111838 0
-0.01065 -0.00736044 0
-0.00770999 -0.00429876 0
-0.00484309 -0.00202551 0
-0.00219642 -0.000578692 0
-0.0719989 -0.150015 0
-0.0675845 -0.134703 0
-0.0635419 -0.120825 0
-0.0592418 -0.107938 0
-0.0548908 -0.0959685 0
-0.0507481 -0.0844063 0
-0.0467887 -0.0734783 0
-0.0429905 -0.0632595 0
-0.0393226 -0.0537785 0
-0.0357477 -0.0450436 0
-0.0322272 -0.0370548 0
-0.0287231 -0.0298098 0
-0.0252007 -0.0233081 0
-0.0216312 -0.0175532 0
-0.0179965 -0.0125544 0
-0.0142959 -0.00832931 0
-0.0105552 -0.00490708 0
-0.0068383 -0.0023332 0
-0.00326057 -0.000672847 0
-0.0861843 -0.153055 0
-0.0810451 -0.138037 0
-0.0765858 -0.124321 0
-0.0719244 -0.111495 0
-0.0669706 -0.0994757 0
-0.0621656 -0.0877809 0
-0.0575072 -0.07667 0
-0.0529859 -0.0662315 0
-0.0485823 -0.0565016 0
-0.0442673 -0.0474961 0
-0.040006 -0.0392218 0
-0.0357605 -0.0316821 0
-0.0314936 -0.0248813 0
-0.0271712 -0.0188271 0
-0.0227677 -0.013534 0
-0.0182706 -0.0090272 0
-0.0136884 -0.00534729 0
-0.00905868 -0.00255637 0
-0.00445632 -0.000741327 0
-0.0998264 -0.152156 0
-0.0941309 -0.137776 0
-0.0893832 -0.124546 0
-0.0844479 -0.112084 0
-0.0789891 -0.100323 0
-0.0735908 -0.0888062 0
-0.0682855 -0.0778057 0
-0.0630844 -0.0674202 0
-0.0579807 -0.0576942 0
-0.0529537 -0.0486514 0
-0.0479732 -0.0403055 0
-0.0430027 -0.032666 0
-0.0380027 -0.0257427 0
-0.032934 -0.0195484 0
-0.0277615 -0.0141038 0
-0.0224588 -0.00944155 0
-0.0170129 -0.00561259 0
-0.0114302 -0.00269234 0
-0.0057405 -0.000783485 0
-0.112634 -0.147788 0
-0.106558 -0.134254 0
-0.101656 -0.121747 0
-0.0965404 -0.109896 0
-0.0906539 -0.098661 0
-0.0847371 -0.0875971 0
-0.0788539 -0.0769703 0
-0.0730338 -0.0668857 0
-0.0672829 -0.0573966 0
-0.0615895 -0.0485342 0
-0.055929 -0.0403191 0
-0.0502666 -0.0327671 0
-0.0445613 -0.0258935 0
-0.0387684 -0.0197167 0
-0.0328427 -0.0142633 0
-0.0267417 -0.00957275 0
-0.0204292 -0.00570409 0
-0.0138775 -0.00274225 0
-0.00706989 -0.000799819 0
-0.124393 -0.140192 0
-0.118096 -0.127706 0
-0.113155 -0.116143 0
-0.107934 -0.105155 0
-0.101697 -0.0946968 0
-0.0953508 -0.0843224 0
-0.0889718 -0.0742963 0
-0.0826064 -0.0647312 0
-0.076274 -0.0556877 0
-0.0699729 -0.047204 0
-0.0636845 -0.0393069 0
-0.0573769 -0.0320182 0
-0.0510076 -0.0253581 0
-0.0445264 -0.0193503 0
-0.0378775 -0.0140263 0
-0.031002 -0.00943086 0
-0.023839 -0.00562864 0
-0.016327 -0.00270988 0
-0.00840279 -0.00079158 0
-0.134923 -0.129936 0
-0.128563 -0.118624 0
-0.123673 -0.108154 0
-0.118404 -0.0982066 0
-0.111908 -0.088694 0
-0.105224 -0.0791899 0
-0.0984345 -0.0699513 0
-0.0916029 -0.0610917 0
-0.0847621 -0.0526761 0
-0.0779204 -0.0447476 0
-0.0710661 -0.0373381 0
-0.0641701 -0.0304736 0
-0.0571889 -0.0241789 0
-0.050067 -0.0184816 0
-0.0427382 -0.013417 0
-0.0351271 -0.00903314 0
-0.027149 -0.00539728 0
-0.0187089 -0.00260098 0
-0.00970005 -0.000760557 0
-0.144059 -0.117317 0
-0.137817 -0.107374 0
-0.133068 -0.0981231 0
-0.1278 -0.0893401 0
-0.121131 -0.0809103 0
-0.11419 -0.0724224 0
-0.107072 -0.0641229 0
-0.0998531 -0.056124 0
-0.0925796 -0.0484919 0
-0.0852694 -0.0412723 0
-0.0779172 -0.0345 0
-0.0704969 -0.0282039 0
-0.0629646 -0.0224119 0
-0.0552596 -0.0171541 0
-0.047306 -0.0124678 0
-0.0390127 -0.0084022 0
-0.0302721 -0.00502414 0
-0.020959 -0.00242267 0
-0.0109259 -0.000708922 0
-0.151727 -0.102631 0
-0.145698 -0.0942158 0
-0.141215 -0.0863561 0
-0.135999 -0.078849 0
-0.129235 -0.0716061 0
-0.122114 -0.0642479 0
-0.114744 -0.0570088 0
-0.107214 -0.0499976 0
-0.0995836 -0.0432794 0
-0.0918785 -0.0368994 0
-0.0840999 -0.0308934 0
-0.0762249 -0.0252916 0
-0.0682089 -0.0201231 0
-0.0599867 -0.015419 0
-0.0514736 -0.0112168 0
-0.042564 -0.00756442 0
-0.0331303 -0.00452548 0
-0.0230194 -0.00218304 0
-0.0120483 -0.000639113 0
-0.157973 -0.0864811 0
-0.152168 -0.0796177 0
-0.148013 -0.0732192 0
-0.142925 -0.067045 0
-0.13613 -0.0610433 0
-0.128893 -0.0548946 0
-0.121339 -0.0488102 0
-0.11357 -0.0428889 0
-0.105654 -0.0371909 0
-0.0976279 -0.031759 0
-0.0894963 -0.0266277 0
-0.0812393 -0.0218269 0
-0.0728119 -0.0173852 0
-0.0641453 -0.013333 0
-0.0551467 -0.00970599 0
-0.0456984 -0.00654876 0
-0.0356551 -0.00391906 0
-0.0248399 -0.00189086 0
-0.0130397 -0.000553744 0
-0.162845 -0.0691256 0
-0.157266 -0.0638708 0
-0.15343 -0.0589493 0
-0.148542 -0.0541582 0
-0.141753 -0.0494562 0
-0.134449 -0.0445832 0
-0.126768 -0.0397276 0
-0.118825 -0.0349765 0
-0.110695 -0.0303832 0
-0.102419 -0.0259864 0
-0.0940079 -0.0218177 0
-0.0854437 -0.0179051 0
-0.076681 -0.0142752 0
-0.067648 -0.010956 0
-0.0582454 -0.00797982 0
-0.0483455 -0.00538578 0
-0.0377884 -0.00322348 0
-0.0263781 -0.00155526 0
-0.0138768 -0.000455525 0
-0.166399 -0.050933 0
-0.161052 -0.0473034 0
-0.157492 -0.0438412 0
-0.152794 -0.0404427 0
-0.146044 -0.037081 0
-0.138717 -0.0335333 0
-0.130964 -0.0299614 0
-0.122907 -0.0264401 0
-0.114629 -0.023015 0
-0.106174 -0.0197193 0
-0.0975567 -0.0165808 0
-0.0887611 -0.0136239 0
-0.0797416 -0.0108722 0
-0.0704241 -0.00834985 0
-0.0607049 -0.00608401 0
-0.0504482 -0.00410682 0
-0.0394835 -0.00245778 0
-0.0275999 -0.00118554 0
-0.0145412 -0.000347203 0
-0.168689 -0.0322667 0
-0.163574 -0.0302127 0
-0.160226 -0.0281891 0
-0.155671 -0.0261763 0
-0.148971 -0.0241618 0
-0.141655 -0.0219643 0
-0.133878 -0.0197101 0
-0.125765 -0.017458 0
-0.117401 -0.0152441 0
-0.108835 -0.0130956 0
-0.100084 -0.0110348 0
-0.091133 -0.00908199 0
-0.0819368 -0.00725623 0
-0.0724199 -0.00557689 0
-0.0624756 -0.00406474 0
-0.0519632 -0.00274346 0
-0.0407047 -0.00164107 0
-0.0284795 -0.000791011 0
-0.0150188 -0.000231519 0
-0.169743 -0.0133056 0
-0.164824 -0.0127749 0
-0.161608 -0.0121933 0
-0.157155 -0.0115823 0
-0.150514 -0.0109273 0
-0.143241 -0.0100903 0
-0.135482 -0.00916882 0
-0.127365 -0.00820567 0
-0.118975 -0.00722685 0
-0.110365 -0.00625177 0
-0.101551 -0.00529698 0
-0.0925203 -0.0043774 0
-0.0832281 -0.00350702 0
-0.0735986 -0.00269933 0
-0.0635239 -0.00196793 0
-0.0528608 -0.00132708 0
-0.0414277 -0.000792324 0
-0.0289993 -0.000380869 0
-0.0153002 -0.000111165 0
-0.169529 0.00558857 0
-0.164746 0.00468127 0
-0.161605 0.00384914 0
-0.157236 0.00308389 0
-0.150673 0.00239882 0
-0.14347 0.00188346 0
-0.135768 0.00147401 0
-0.127695 0.00114577 0
-0.119337 0.000884182 0
-0.110745 0.000678055 0
-0.101938 0.000517419 0
-0.0929024 0.000393113 0
-0.0835949 0.000296864 0
-0.0739404 0.000221492 0
-0.0638312 0.000161127 0
-0.0531248 0.000111436 0
-0.0416395 6.98607e-05 0
-0.02915 3.58753e-05 0
-0.0153805 1.12249e-05 0
-0.16801 0.0242281 0
-0.163304 0.0219282 0
-0.160231 0.0197209 0
-0.15594 0.0176153 0
-0.149465 0.0156128 0
-0.142352 0.0137623 0
-0.134743 0.0120368 0
-0.126759 0.0104303 0
-0.118487 0.00893994 0
-0.109976 0.00756274 0
-0.101243 0.00629543 0
-0.0922773 0.00513477 0
-0.0830347 0.00407834 0
-0.0734422 0.00312545 0
-0.0633947 0.00227806 0
-0.0527526 0.00154187 0
-0.0413381 0.000927302 0
-0.0289303 0.000450447 0
-0.0152591 0.000133096 0
-0.16517 0.0424861 0
-0.160499 0.0388277 0
-0.157498 0.0352662 0
-0.153276 0.0318286 0
-0.146904 0.0285198 0
-0.139907 0.0253566 0
-0.132426 0.0223421 0
-0.124579 0.0194858 0
-0.116446 0.0167949 0
-0.108076 0.0142743 0
-0.0994853 0.0119268 0
-0.0906611 0.00975502 0
-0.0815621 0.00776218 0
-0.0721176 0.00595385 0
-0.0622265 0.00433961 0
-0.0517549 0.00293477 0
-0.0405322 0.00176231 0
-0.0283468 0.000854321 0
-0.0149399 0.00025197 0
-0.161072 0.0600106 0
-0.156415 0.0550645 0
-0.153437 0.0502117 0
-0.149272 0.0454818 0
-0.14302 0.0409078 0
-0.136171 0.0364735 0
-0.128857 0.0322139 0
-0.121192 0.0281528 0
-0.113252 0.0243068 0
-0.105083 0.0206877 0
-0.0966991 0.017304 0
-0.0880876 0.0141637 0
-0.079209 0.0112751 0
-0.0699961 0.00864963 0
-0.0603535 0.00630369 0
-0.0501551 0.00426153 0
-0.0392413 0.0025577 0
-0.0274138 0.00123922 0
-0.0144305 0.000365444 0
-0.15576 0.0766659 0
-0.151115 0.0704384 0
-0.148104 0.0643224 0
-0.143983 0.058346 0
-0.137868 0.0525633 0
-0.131196 0.0469197 0
-0.124089 0.0414774 0
-0.116653 0.0362745 0
-0.10896 0.0313363 0
-0.101051 0.026681 0
-0.0929379 0.0223226 0
-0.0846082 0.0182733 0
-0.0760242 0.0145461 0
-0.0671232 0.0111574 0
-0.0578168 0.00812947 0
-0.0479893 0.00549437 0
-0.0374947 0.00329679 0
-0.0261527 0.00159711 0
-0.0137429 0.000471186 0
-0.149255 0.0921929 0
-0.144624 0.0847006 0
-0.141548 0.0773485 0
-0.137475 0.0701922 0
-0.131518 0.063279 0
-0.125054 0.0565063 0
-0.118194 0.0499618 0
-0.111036 0.0436975 0
-0.103643 0.0377475 0
-0.0960517 0.0321358 0
-0.088272 0.0268809 0
-0.0802908 0.0219989 0
-0.0720724 0.0175064 0
-0.0635592 0.0134235 0
-0.0546713 0.00977743 0
-0.0453055 0.00660635 0
-0.0353321 0.00396339 0
-0.0245924 0.00192019 0
-0.0128927 0.000566922 0
-0.141613 0.10632 0
-0.136982 0.0975972 0
-0.133845 0.0890625 0
-0.129843 0.080812 0
-0.124062 0.0728598 0
-0.117836 0.0650516 0
-0.111264 0.0575008 0
-0.10443 0.0502726 0
-0.09739 0.0434084 0
-0.0901739 0.0369371 0
-0.0827884 0.030881 0
-0.0752194 0.0252588 0
-0.0674335 0.0200896 0
-0.059379 0.0153964 0
-0.0509855 0.0112094 0
-0.0421634 0.00757146 0
-0.0328024 0.00454179 0
-0.0227685 0.00220083 0
-0.0118995 0.000650427 0
-0.132856 0.118893 0
-0.128236 0.108958 0
-0.125077 0.099305 0
-0.12117 0.0900289 0
-0.115592 0.0811185 0
-0.109642 0.0723779 0
-0.103401 0.0639326 0
-0.0969415 0.0558549 0
-0.090308 0.0481915 0
-0.0835232 0.0409748 0
-0.0765901 0.0342291 0
-0.0694935 0.0279749 0
-0.0622025 0.0222327 0
-0.0546713 0.0170267 0
-0.0468397 0.012389 0
-0.0386336 0.00836468 0
-0.0299636 0.00501682 0
-0.0207234 0.00243165 0
-0.0107862 0.00071952 0
-0.123053 0.129489 0
-0.11849 0.118445 0
-0.115354 0.107792 0
-0.111554 0.0976009 0
-0.106222 0.0878527 0
-0.100593 0.0783074 0
-0.0947313 0.069099 0
-0.0886957 0.0603051 0
-0.0825208 0.0519754 0
-0.0762213 0.0441442 0
-0.0697956 0.0368368 0
-0.0632273 0.030074 0
-0.0564877 0.0238764 0
-0.0495372 0.0182682 0
-0.0423264 0.0132818 0
-0.0347971 0.00896225 0
-0.0268823 0.00537391 0
-0.0185059 0.00260548 0
-0.00957975 0.000772059 0
-0.112315 0.137879 0
-0.107888 0.125825 0
-0.104816 0.114288 0
-0.101143 0.10331 0
-0.0960971 0.0928681 0
-0.0908321 0.0826678 0
-0.0853972 0.0728483 0
-0.0798356 0.0634909 0
-0.0741699 0.0546464 0
-0.0684064 0.0463488 0
-0.0625386 0.0386229 0
-0.0565488 0.031489 0
-0.0504104 0.0249665 0
-0.0440898 0.0190786 0
-0.0375483 0.013856 0
-0.0307439 0.00934204 0
-0.0236329 0.00559933 0
-0.0161705 0.00271542 0
-0.00831004 0.000805944 0
-0.10077 0.143808 0
-0.0965854 0.130859 0
-0.0936245 0.118581 0
-0.0900982 0.106972 0
-0.0853806 0.0959851 0
-0.0805245 0.0852954 0
-0.0755643 0.0750382 0
-0.0705244 0.065291 0
-0.0654144 0.0561018 0
-0.0602324 0.0475027 0
-0.0549668 0.0395164 0
-0.0495985 0.0321617 0
-0.0441028 0.0254563 0
-0.0384518 0.0194211 0
-0.032617 0.0140838 0
-0.0265723 0.00948429 0
-0.0202968 0.00568049 0
-0.0137773 0.00275499 0
-0.00701034 0.000819136 0
-0.0886363 0.146853 0
-0.0848152 0.133215 0
-0.0820005 0.120407 0
-0.0786186 0.108357 0
-0.0742612 0.0970147 0
-0.0698617 0.0860342 0
-0.0654217 0.07554 0
-0.0609459 0.0655995 0
-0.0564314 0.056255 0
-0.0518685 0.0475349 0
-0.047241 0.0394597 0
-0.0425282 0.0320458 0
-0.037707 0.0253087 0
-0.0327545 0.0192664 0
-0.0276517 0.0139428 0
-0.0223869 0.00937267 0
-0.0169607 0.0056066 0
-0.0113909 0.00271836 0
-0.00571668 0.000809697 0
-0.0761784 0.146824 0
-0.0728489 0.132698 0
-0.0701798 0.11956 0
-0.0669298 0.107259 0
-0.0629709 0.0957831 0
-0.059069 0.0847501 0
-0.0551847 0.0742493 0
-0.0513042 0.0643341 0
-0.047414 0.0550408 0
-0.043497 0.0463946 0
-0.0395325 0.0384131 0
-0.035498 0.0311105 0
-0.0313716 0.0244998 0
-0.0271348 0.0185959 0
-0.0227761 0.0134185 0
-0.0182965 0.00899588 0
-0.0137155 0.00536954 0
-0.00907911 0.00260069 0
-0.00446746 0.000775865 0
-0.0637343 0.143345 0
-0.0609464 0.12902 0
-0.0583806 0.115786 0
-0.0552841 0.103491 0
-0.0517798 0.0921668 0
-0.0484001 0.0813532 0
-0.0450883 0.0710976 0
-0.0418191 0.061443 0
-0.0385684 0.0524219 0
-0.0353108 0.044056 0
-0.0320207 0.0363601 0
-0.028674 0.0293456 0
-0.0252495 0.0230233 0
-0.0217318 0.0174052 0
-0.0181155 0.012507 0
-0.0144111 0.00835 0
-0.0106534 0.0049654 0
-0.00691179 0.00239887 0
-0.00330263 0.000716198 0
-0.0516641 0.13595 0
-0.0493615 0.121849 0
-0.0468638 0.108906 0
-0.0440032 0.0969847 0
-0.0409799 0.0861282 0
-0.0381159 0.0758099 0
-0.0353751 0.0660576 0
-0.0327192 0.05691 0
-0.0301089 0.0483936 0
-0.0275091 0.0405243 0
-0.0248893 0.0333125 0
-0.022224 0.0267667 0
-0.0194928 0.0208955 0
-0.0166828 0.015709 0
-0.0137923 0.0112193 0
-0.0108379 0.00744181 0
-0.00786442 0.00439675 0
-0.0049578 0.00211263 0
-0.0022625 0.000629857 0
-0.0401841 0.124268 0
-0.0383987 0.111035 0
-0.0359814 0.0989471 0
-0.0333693 0.087809 0
-0.0308137 0.0776843 0
-0.0284578 0.0681187 0
-0.0262865 0.0591351 0
-0.0242379 0.0507545 0
-0.0222551 0.042988 0
-0.0202942 0.0358407 0
-0.018322 0.0293166 0
-0.0163131 0.0234211 0
-0.0142489 0.0181615 0
-0.0121181 0.0135468 0
-0.00992088 0.00958732 0
-0.00767604 0.00629352 0
-0.0054317 0.00367618 0
-0.00328146 0.00174659 0
-0.00138582 0.000517152 0
-0.0295066 0.108206 0
-0.0283617 0.0964921 0
-0.0260705 0.0857827 0
-0.0236029 0.0758618 0
-0.0214952 0.0667814 0
-0.0196701 0.0582751 0
-0.0180746 0.0503632 0
-0.0166178 0.0430357 0
-0.0152311 0.0362805 0
-0.0138685 0.0300893 0
-0.0124986 0.02446 0
-0.0110992 0.0193953 0
-0.00965431 0.0149024 0
-0.00815469 0.0109908 0
-0.00660066 0.00767045 0
-0.00500902 0.0049496 0
-0.00342441 0.00283187 0
-0.00193673 0.00131368 0
-0.000706514 0.000380771 0
-0.0197894 0.0877991 0
-0.0193684 0.0781521 0
-0.0173572 0.069199 0
-0.015013 0.0609268 0
-0.0133328 0.05334 0
-0.0120582 0.0463043 0
-0.011026 0.0398263 0
-0.0101181 0.0338684 0
-0.00926667 0.0284005 0
-0.0084328 0.0234058 0
-0.00759241 0.0188789 0
-0.00672908 0.0148223 0
-0.00583112 0.011244 0
-0.00489129 0.00815483 0
-0.00390917 0.00556631 0
-0.00289666 0.00348668 0
-0.00188838 0.00191638 0
-0.000958491 0.00084216 0
-0.000246404 0.000227415 0
-0.0114723 0.0631554 0
-0.0115649 0.0561717 0
-0.00999005 0.0492921 0
-0.0079587 0.0430446 0
-0.00673838 0.0374484 0
-0.00599808 0.032354 0
-0.00546393 0.0277044 0
-0.00501354 0.0234447 0
-0.00459558 0.0195428 0
-0.00418564 0.0159841 0
-0.00376988 0.012765 0
-0.00333895 0.00988944 0
-0.00288585 0.00736615 0
-0.00240575 0.00520697 0
-0.00189744 0.00342452 0
-0.00136679 0.00202863 0
-0.000834411 0.00102059 0
-0.000349983 0.00038564 0
-9.8591e-06 8.08486e-05 0
-0.00525581 0.0345146 0
-0.00510814 0.0307108 0
-0.00407539 0.0262876 0
-0.00280866 0.0225305 0
-0.00216501 0.0194571 0
-0.00188426 0.0167571 0
-0.00171144 0.0142995 0