<?xml version="1.0"?>
<VTKFile type="UnstructuredGrid">
  <UnstructuredGrid>
  <Piece NumberOfPoints="3321"  NumberOfCells="1600">
    <Points>
      <DataArray type="Float64" NumberOfComponents="3" format="ascii">
0 0 0.1
1 0 0.1
1 0.5 0.1
0 0.5 0.1
0.025 0 0.1
0.05 0 0.1
0.075 0 0.1
0.1 0 0.1
0.125 0 0.1
0.15 0 0.1
0.175 0 0.1
0.2 0 0.1
0.225 0 0.1
0.25 0 0.1
0.275 0 0.1
0.3 0 0.1
0.325 0 0.1
0.35 0 0.1
0.375 0 0.1
0.4 0 0.1
0.425 0 0.1
0.45 0 0.1
0.475 0 0.1
0.5 0 0.1
0.525 0 0.1
0.55 0 0.1
0.575 0 0.1
0.6 0 0.1
0.625 0 0.1
0.65 0 0.1
0.675 0 0.1
0.7 0 0.1
0.725 0 0.1
0.75 0 0.1
0.775 0 0.1
0.8 0 0.1
0.825 0 0.1
0.85 0 0.1
0.875 0 0.1
0.9 0 0.1
0.925 0 0.1
0.95 0 0.1
0.975 0 0.1
0.0125 0 0.1
0.0375 0 0.1
0.0625 0 0.1
0.0875 0 0.1
0.1125 0 0.1
0.1375 0 0.1
0.1625 0 0.1
0.1875 0 0.1
0.2125 0 0.1
0.2375 0 0.1
0.2625 0 0.1
0.2875 0 0.1
0.3125 0 0.1
0.3375 0 0.1
0.3625 0 0.1
0.3875 0 0.1
0.4125 0 0.1
0.4375 0 0.1
0.4625 0 0.1
0.4875 0 0.1
0.5125 0 0.1
0.5375 0 0.1
0.5625 0 0.1
0.5875 0 0.1
0.6125 0 0.1
0.6375 0 0.1
0.6625 0 0.1
0.6875 0 0.1
0.7125 0 0.1
0.7375 0 0.1
0.7625 0 0.1
0.7875 0 0.1
0.8125 0 0.1
0.8375 0 0.1
0.8625 0 0.1
0.8875 0 0.1
0.9125 0 0.1
0.9375 0 0.1
0.9625 0 0.1
0.9875 0 0.1
1 0.025 0.1
1 0.05 0.1
1 0.075 0.1
1 0.1 0.1
1 0.125 0.1
1 0.15 0.1
1 0.175 0.1
1 0.2 0.1
1 0.225 0.1
1 0.25 0.1
1 0.275 0.1
1 0.3 0.1
1 0.325 0.1
1 0.35 0.1
1 0.375 0.1
1 0.4 0.1
1 0.425 0.1
1 0.45 0.1
1 0.475 0.1
1 0.0125 0.1
1 0.0375 0.1
1 0.0625 0.1
1 0.0875 0.1
1 0.1125 0.1
1 0.1375 0.1
1 0.1625 0.1
1 0.1875 0.1
1 0.2125 0.1
1 0.2375 0.1
1 0.2625 0.1
1 0.2875 0.1
1 0.3125 0.1
1 0.3375 0.1
1 0.3625 0.1
1 0.3875 0.1
1 0.4125 0.1
1 0.4375 0.1
1 0.4625 0.1
1 0.4875 0.1
0.975 0.5 0.1
0.95 0.5 0.1
0.925 0.5 0.1
0.9 0.5 0.1
0.875 0.5 0.1
0.85 0.5 0.1
0.825 0.5 0.1
0.8 0.5 0.1
0.775 0.5 0.1
0.75 0.5 0.1
0.725 0.5 0.1
0.7 0.5 0.1
0.675 0.5 0.1
0.65 0.5 0.1
0.625 0.5 0.1
0.6 0.5 0.1
0.575 0.5 0.1
0.55 0.5 0.1
0.525 0.5 0.1
0.5 0.5 0.1
0.475 0.5 0.1
0.45 0.5 0.1
0.425 0.5 0.1
0.4 0.5 0.1
0.375 0.5 0.1
0.35 0.5 0.1
0.325 0.5 0.1
0.3 0.5 0.1
0.275 0.5 0.1
0.25 0.5 0.1
0.225 0.5 0.1
0.2 0.5 0.1
0.175 0.5 0.1
0.15 0.5 0.1
0.125 0.5 0.1
0.1 0.5 0.1
0.075 0.5 0.1
0.05 0.5 0.1
0.025 0.5 0.1
0.9875 0.5 0.1
0.9625 0.5 0.1
0.9375 0.5 0.1
0.9125 0.5 0.1
0.8875 0.5 0.1
0.8625 0.5 0.1
0.8375 0.5 0.1
0.8125 0.5 0.1
0.7875 0.5 0.1
0.7625 0.5 0.1
0.7375 0.5 0.1
0.7125 0.5 0.1
0.6875 0.5 0.1
0.6625 0.5 0.1
0.6375 0.5 0.1
0.6125 0.5 0.1
0.5875 0.5 0.1
0.5625 0.5 0.1
0.5375 0.5 0.1
0.5125 0.5 0.1
0.4875 0.5 0.1
0.4625 0.5 0.1
0.4375 0.5 0.1
0.4125 0.5 0.1
0.3875 0.5 0.1
0.3625 0.5 0.1
0.3375 0.5 0.1
0.3125 0.5 0.1
0.2875 0.5 0.1
0.2625 0.5 0.1
0.2375 0.5 0.1
0.2125 0.5 0.1
0.1875 0.5 0.1
0.1625 0.5 0.1
0.1375 0.5 0.1
0.1125 0.5 0.1
0.0875 0.5 0.1
0.0625 0.5 0.1
0.0375 0.5 0.1
0.0125 0.5 0.1
0 0.475 0.1
0 0.45 0.1
0 0.425 0.1
0 0.4 0.1
0 0.375 0.1
0 0.35 0.1
0 0.325 0.1
0 0.3 0.1
0 0.275 0.1
0 0.25 0.1
0 0.225 0.1
0 0.2 0.1
0 0.175 0.1
0 0.15 0.1
0 0.125 0.1
0 0.1 0.1
0 0.075 0.1
0 0.05 0.1
0 0.025 0.1
0 0.4875 0.1
0 0.4625 0.1
0 0.4375 0.1
0 0.4125 0.1
0 0.3875 0.1
0 0.3625 0.1
0 0.3375 0.1
0 0.3125 0.1
0 0.2875 0.1
0 0.2625 0.1
0 0.2375 0.1
0 0.2125 0.1
0 0.1875 0.1
0 0.1625 0.1
0 0.1375 0.1
0 0.1125 0.1
0 0.0875 0.1
0 0.0625 0.1
0 0.0375 0.1
0 0.0125 0.1
0.975 0.475 0.1
0.975 0.45 0.1
0.975 0.425 0.1
0.975 0.4 0.1
0.975 0.375 0.1
0.975 0.35 0.1
0.975 0.325 0.1
0.975 0.3 0.1
0.975 0.275 0.1
0.975 0.25 0.1
0.975 0.225 0.1
0.975 0.2 0.1
0.975 0.175 0.1
0.975 0.15 0.1
0.975 0.125 0.1
0.975 0.1 0.1
0.975 0.075 0.1
0.975 0.05 0.1
0.975 0.025 0.1
0.95 0.475 0.1
0.95 0.45 0.1
0.95 0.425 0.1
0.95 0.4 0.1
0.95 0.375 0.1
0.95 0.35 0.1
0.95 0.325 0.1
0.95 0.3 0.1
0.95 0.275 0.1
0.95 0.25 0.1
0.95 0.225 0.1
0.95 0.2 0.1
0.95 0.175 0.1
0.95 0.15 0.1
0.95 0.125 0.1
0.95 0.1 0.1
0.95 0.075 0.1
0.95 0.05 0.1
0.95 0.025 0.1
0.925 0.475 0.1
0.925 0.45 0.1
0.925 0.425 0.1
0.925 0.4 0.1
0.925 0.375 0.1
0.925 0.35 0.1
0.925 0.325 0.1
0.925 0.3 0.1
0.925 0.275 0.1
0.925 0.25 0.1
0.925 0.225 0.1
0.925 0.2 0.1
0.925 0.175 0.1
0.925 0.15 0.1
0.925 0.125 0.1
0.925 0.1 0.1
0.925 0.075 0.1
0.925 0.05 0.1
0.925 0.025 0.1
0.9 0.475 0.1
0.9 0.45 0.1
0.9 0.425 0.1
0.9 0.4 0.1
0.9 0.375 0.1
0.9 0.35 0.1
0.9 0.325 0.1
0.9 0.3 0.1
0.9 0.275 0.1
0.9 0.25 0.1
0.9 0.225 0.1
0.9 0.2 0.1
0.9 0.175 0.1
0.9 0.15 0.1
0.9 0.125 0.1
0.9 0.1 0.1
0.9 0.075 0.1
0.9 0.05 0.1
0.9 0.025 0.1
0.875 0.475 0.1
0.875 0.45 0.1
0.875 0.425 0.1
0.875 0.4 0.1
0.875 0.375 0.1
0.875 0.35 0.1
0.875 0.325 0.1
0.875 0.3 0.1
0.875 0.275 0.1
0.875 0.25 0.1
0.875 0.225 0.1
0.875 0.2 0.1
0.875 0.175 0.1
0.875 0.15 0.1
0.875 0.125 0.1
0.875 0.1 0.1
0.875 0.075 0.1
0.875 0.05 0.1
0.875 0.025 0.1
0.85 0.475 0.1
0.85 0.45 0.1
0.85 0.425 0.1
0.85 0.4 0.1
0.85 0.375 0.1
0.85 0.35 0.1
0.85 0.325 0.1
0.85 0.3 0.1
0.85 0.275 0.1
0.85 0.25 0.1
0.85 0.225 0.1
0.85 0.2 0.1
0.85 0.175 0.1
0.85 0.15 0.1
0.85 0.125 0.1
0.85 0.1 0.1
0.85 0.075 0.1
0.85 0.05 0.1
0.85 0.025 0.1
0.825 0.475 0.1
0.825 0.45 0.1
0.825 0.425 0.1
0.825 0.4 0.1
0.825 0.375 0.1
0.825 0.35 0.1
0.825 0.325 0.1
0.825 0.3 0.1
0.825 0.275 0.1
0.825 0.25 0.1
0.825 0.225 0.1
0.825 0.2 0.1
0.825 0.175 0.1
0.825 0.15 0.1
0.825 0.125 0.1
0.825 0.1 0.1
0.825 0.075 0.1
0.825 0.05 0.1
0.825 0.025 0.1
0.8 0.475 0.1
0.8 0.45 0.1
0.8 0.425 0.1
0.8 0.4 0.1
0.8 0.375 0.1
0.8 0.35 0.1
0.8 0.325 0.1
0.8 0.3 0.1
0.8 0.275 0.1
0.8 0.25 0.1
0.8 0.225 0.1
0.8 0.2 0.1
0.8 0.175 0.1
0.8 0.15 0.1
0.8 0.125 0.1
0.8 0.1 0.1
0.8 0.075 0.1
0.8 0.05 0.1
0.8 0.025 0.1
0.775 0.475 0.1
0.775 0.45 0.1
0.775 0.425 0.1
0.775 0.4 0.1
0.775 0.375 0.1
0.775 0.35 0.1
0.775 0.325 0.1
0.775 0.3 0.1
0.775 0.275 0.1
0.775 0.25 0.1
0.775 0.225 0.1
0.775 0.2 0.1
0.775 0.175 0.1
0.775 0.15 0.1
0.775 0.125 0.1
0.775 0.1 0.1
0.775 0.075 0.1
0.775 0.05 0.1
0.775 0.025 0.1
0.75 0.475 0.1
0.75 0.45 0.1
0.75 0.425 0.1
0.75 0.4 0.1
0.75 0.375 0.1
0.75 0.35 0.1
0.75 0.325 0.1
0.75 0.3 0.1
0.75 0.275 0.1
0.75 0.25 0.1
0.75 0.225 0.1
0.75 0.2 0.1
0.75 0.175 0.1
0.75 0.15 0.1
0.75 0.125 0.1
0.75 0.1 0.1
0.75 0.075 0.1
0.75 0.05 0.1
0.75 0.025 0.1
0.725 0.475 0.1
0.725 0.45 0.1
0.725 0.425 0.1
0.725 0.4 0.1
0.725 0.375 0.1
0.725 0.35 0.1
0.725 0.325 0.1
0.725 0.3 0.1
0.725 0.275 0.1
0.725 0.25 0.1
0.725 0.225 0.1
0.725 0.2 0.1
0.725 0.175 0.1
0.725 0.15 0.1
0.725 0.125 0.1
0.725 0.1 0.1
0.725 0.075 0.1
0.725 0.05 0.1
0.725 0.025 0.1
0.7 0.475 0.1
0.7 0.45 0.1
0.7 0.425 0.1
0.7 0.4 0.1
0.7 0.375 0.1
0.7 0.35 0.1
0.7 0.325 0.1
0.7 0.3 0.1
0.7 0.275 0.1
0.7 0.25 0.1
0.7 0.225 0.1
0.7 0.2 0.1
0.7 0.175 0.1
0.7 0.15 0.1
0.7 0.125 0.1
0.7 0.1 0.1
0.7 0.075 0.1
0.7 0.05 0.1
0.7 0.025 0.1
0.675 0.475 0.1
0.675 0.45 0.1
0.675 0.425 0.1
0.675 0.4 0.1
0.675 0.375 0.1
0.675 0.35 0.1
0.675 0.325 0.1
0.675 0.3 0.1
0.675 0.275 0.1
0.675 0.25 0.1
0.675 0.225 0.1
0.675 0.2 0.1
0.675 0.175 0.1
0.675 0.15 0.1
0.675 0.125 0.1
0.675 0.1 0.1
0.675 0.075 0.1
0.675 0.05 0.1
0.675 0.025 0.1
0.65 0.475 0.1
0.65 0.45 0.1
0.65 0.425 0.1
0.65 0.4 0.1
0.65 0.375 0.1
0.65 0.35 0.1
0.65 0.325 0.1
0.65 0.3 0.1
0.65 0.275 0.1
0.65 0.25 0.1
0.65 0.225 0.1
0.65 0.2 0.1
0.65 0.175 0.1
0.65 0.15 0.1
0.65 0.125 0.1
0.65 0.1 0.1
0.65 0.075 0.1
0.65 0.05 0.1
0.65 0.025 0.1
0.625 0.475 0.1
0.625 0.45 0.1
0.625 0.425 0.1
0.625 0.4 0.1
0.625 0.375 0.1
0.625 0.35 0.1
0.625 0.325 0.1
0.625 0.3 0.1
0.625 0.275 0.1
0.625 0.25 0.1
0.625 0.225 0.1
0.625 0.2 0.1
0.625 0.175 0.1
0.625 0.15 0.1
0.625 0.125 0.1
0.625 0.1 0.1
0.625 0.075 0.1
0.625 0.05 0.1
0.625 0.025 0.1
0.6 0.475 0.1
0.6 0.45 0.1
0.6 0.425 0.1
0.6 0.4 0.1
0.6 0.375 0.1
0.6 0.35 0.1
0.6 0.325 0.1
0.6 0.3 0.1
0.6 0.275 0.1
0.6 0.25 0.1
0.6 0.225 0.1
0.6 0.2 0.1
0.6 0.175 0.1
0.6 0.15 0.1
0.6 0.125 0.1
0.6 0.1 0.1
0.6 0.075 0.1
0.6 0.05 0.1
0.6 0.025 0.1
0.575 0.475 0.1
0.575 0.45 0.1
0.575 0.425 0.1
0.575 0.4 0.1
0.575 0.375 0.1
0.575 0.35 0.1
0.575 0.325 0.1
0.575 0.3 0.1
0.575 0.275 0.1
0.575 0.25 0.1
0.575 0.225 0.1
0.575 0.2 0.1
0.575 0.175 0.1
0.575 0.15 0.1
0.575 0.125 0.1
0.575 0.1 0.1
0.575 0.075 0.1
0.575 0.05 0.1
0.575 0.025 0.1
0.55 0.475 0.1
0.55 0.45 0.1
0.55 0.425 0.1
0.55 0.4 0.1
0.55 0.375 0.1
0.55 0.35 0.1
0.55 0.325 0.1
0.55 0.3 0.1
0.55 0.275 0.1
0.55 0.25 0.1
0.55 0.225 0.1
0.55 0.2 0.1
0.55 0.175 0.1
0.55 0.15 0.1
0.55 0.125 0.1
0.55 0.1 0.1
0.55 0.075 0.1
0.55 0.05 0.1
0.55 0.025 0.1
0.525 0.475 0.1
0.525 0.45 0.1
0.525 0.425 0.1
0.525 0.4 0.1
0.525 0.375 0.1
0.525 0.35 0.1
0.525 0.325 0.1
0.525 0.3 0.1
0.525 0.275 0.1
0.525 0.25 0.1
0.525 0.225 0.1
0.525 0.2 0.1
0.525 0.175 0.1
0.525 0.15 0.1
0.525 0.125 0.1
0.525 0.1 0.1
0.525 0.075 0.1
0.525 0.05 0.1
0.525 0.025 0.1
0.5 0.475 0.1
0.5 0.45 0.1
0.5 0.425 0.1
0.5 0.4 0.1
0.5 0.375 0.1
0.5 0.35 0.1
0.5 0.325 0.1
0.5 0.3 0.1
0.5 0.275 0.1
0.5 0.25 0.1
0.5 0.225 0.1
0.5 0.2 0.1
0.5 0.175 0.1
0.5 0.15 0.1
0.5 0.125 0.1
0.5 0.1 0.1
0.5 0.075 0.1
0.5 0.05 0.1
0.5 0.025 0.1
0.475 0.475 0.1
0.475 0.45 0.1
0.475 0.425 0.1
0.475 0.4 0.1
0.475 0.375 0.1
0.475 0.35 0.1
0.475 0.325 0.1
0.475 0.3 0.1
0.475 0.275 0.1
0.475 0.25 0.1
0.475 0.225 0.1
0.475 0.2 0.1
0.475 0.175 0.1
0.475 0.15 0.1
0.475 0.125 0.1
0.475 0.1 0.1
0.475 0.075 0.1
0.475 0.05 0.1
0.475 0.025 0.1
0.45 0.475 0.1
0.45 0.45 0.1
0.45 0.425 0.1
0.45 0.4 0.1
0.45 0.375 0.1
0.45 0.35 0.1
0.45 0.325 0.1
0.45 0.3 0.1
0.45 0.275 0.1
0.45 0.25 0.1
0.45 0.225 0.1
0.45 0.2 0.1
0.45 0.175 0.1
0.45 0.15 0.1
0.45 0.125 0.1
0.45 0.1 0.1
0.45 0.075 0.1
0.45 0.05 0.1
0.45 0.025 0.1
0.425 0.475 0.1
0.425 0.45 0.1
0.425 0.425 0.1
0.425 0.4 0.1
0.425 0.375 0.1
0.425 0.35 0.1
0.425 0.325 0.1
0.425 0.3 0.1
0.425 0.275 0.1
0.425 0.25 0.1
0.425 0.225 0.1
0.425 0.2 0.1
0.425 0.175 0.1
0.425 0.15 0.1
0.425 0.125 0.1
0.425 0.1 0.1
0.425 0.075 0.1
0.425 0.05 0.1
0.425 0.025 0.1
0.4 0.475 0.1
0.4 0.45 0.1
0.4 0.425 0.1
0.4 0.4 0.1
0.4 0.375 0.1
0.4 0.35 0.1
0.4 0.325 0.1
0.4 0.3 0.1
0.4 0.275 0.1
0.4 0.25 0.1
0.4 0.225 0.1
0.4 0.2 0.1
0.4 0.175 0.1
0.4 0.15 0.1
0.4 0.125 0.1
0.4 0.1 0.1
0.4 0.075 0.1
0.4 0.05 0.1
0.4 0.025 0.1
0.375 0.475 0.1
0.375 0.45 0.1
0.375 0.425 0.1
0.375 0.4 0.1
0.375 0.375 0.1
[...]
    <PointData>
      <DataArray type="Float64" NumberOfComponents="3" Name="Velocity" format="ascii">
0 0 0
0 0 0
0 0 0
0 0 0
0 0 0
0 0 0
0 0 0
0 0 0
0 0 0
0 0 0
0 0 0
0 0 0
0 0 0
0 0 0
0 0 0
0 0 0
0 0 0
0 0 0
0 0 0
0 0 0
0 0 0
0 0 0
0 0 0
0 0 0
0 0 0
0 0 0
0 0 0
0 0 0
0 0 0
0 0 0
0 0 0
0 0 0
0 0 0
0 0 0
0 0 0
0 0 0
0 0 0
0 0 0
0 0 0
0 0 0
0 0 0
0 0 0
0 0 0
0 0 0
0 0 0
0 0 0
0 0 0
0 0 0
0 0 0
0 0 0
0 0 0
0 0 0
0 0 0
0 0 0
0 0 0
0 0 0
0 0 0
0 0 0
0 0 0
0 0 0
0 0 0
0 0 0
0 0 0
0 0 0
0 0 0
0 0 0
0 0 0
0 0 0
0 0 0
0 0 0
0 0 0
0 0 0
0 0 0
0 0 0
0 0 0
0 0 0
0 0 0
0 0 0
0 0 0
0 0 0
0 0 0
0 0 0
0 0 0
0 0 0
0 0 0
0 0 0
0 0 0
0 0 0
0 0 0
0 0 0
0 0 0
0 0 0
0 0 0
0 0 0
0 0 0
0 0 0
0 0 0
0 0 0
0 0 0
0 0 0
0 0 0
0 0 0
0 0 0
0 0 0
0 0 0
0 0 0
0 0 0
0 0 0
0 0 0
0 0 0
0 0 0
0 0 0
0 0 0
0 0 0
0 0 0
0 0 0
0 0 0
0 0 0
0 0 0
0 0 0
0 0 0
0 0 0
-0.00271571 -0.0361417 0
-0.0092935 -0.0656767 0
-0.0190169 -0.0899228 0
-0.0303515 -0.10932 0
-0.0432738 -0.124104 0
-0.0573925 -0.133938 0
-0.0714407 -0.13948 0
-0.0852384 -0.140856 0
-0.0984955 -0.138499 0
-0.110671 -0.133225 0
-0.121707 -0.12506 0
-0.131464 -0.114739 0
-0.139737 -0.1026 0
-0.146698 -0.088933 0
-0.152355 -0.0743744 0
-0.15667 -0.0590581 0
-0.159759 -0.0433101 0
-0.161622 -0.0273921 0
-0.162309 -0.0113634 0
-0.161896 0.00451929 0
-0.160399 0.0201777 0
-0.157846 0.0355343 0
-0.154231 0.0503955 0
-0.149548 0.0647156 0
-0.14382 0.0782927 0
-0.137027 0.0909317 0
-0.129201 0.102527 0
-0.120348 0.112662 0
-0.110427 0.121131 0
-0.0996132 0.127622 0
-0.0880513 0.131663 0
-0.0757565 0.133137 0
-0.0631092 0.131454 0
-0.0504811 0.126219 0
-0.0384097 0.116791 0
-0.0273124 0.102466 0
-0.0172065 0.0833126 0
-0.00866531 0.0594367 0
-0.00288409 0.0309104 0
-0.00123428 -0.0180569 0
-0.00557549 -0.0515939 0
-0.0139614 -0.0784912 0
-0.0245635 -0.100297 0
-0.0367003 -0.117408 0
-0.0503842 -0.129766 0
-0.064534 -0.137424 0
-0.0784797 -0.140893 0
-0.0920729 -0.140321 0
-0.104808 -0.136481 0
-0.116418 -0.129711 0
-0.126833 -0.120388 0
-0.135843 -0.10913 0
-0.143436 -0.0961345 0
-0.14975 -0.0819651 0
-0.15472 -0.0669909 0
-0.158408 -0.0513811 0
-0.160879 -0.0355177 0
-0.162134 -0.0194929 0
-0.162261 -0.00348687 0
-0.161295 0.0123141 0
-0.15926 0.0278704 0
-0.156171 0.043014 0
-0.152011 0.0576411 0
-0.146797 0.0716451 0
-0.14053 0.0847816 0
-0.133207 0.096954 0
-0.124867 0.107868 0
-0.115467 0.117196 0
-0.10507 0.124749 0
-0.0938822 0.13003 0
-0.0819297 0.132811 0
-0.0694059 0.132791 0
-0.0567333 0.129354 0
-0.0443213 0.122171 0
-0.0327085 0.110333 0
-0.022067 0.0935503 0
-0.0126319 0.072048 0
-0.00532171 0.0458813 0
-0.00251534 0.0146871 0
0 0 0
0 0 0
0 0 0
0 0 0
0 0 0
0 0 0
0 0 0
0 0 0
0 0 0
0 0 0
0 0 0
0 0 0
0 0 0
0 0 0
0 0 0
0 0 0
0 0 0
0 0 0
0 0 0
0 0 0
0 0 0
0 0 0
0 0 0
0 0 0
0 0 0
0 0 0
0 0 0
0 0 0
0 0 0
0 0 0
0 0 0
0 0 0
0 0 0
0 0 0
0 0 0
0 0 0
0 0 0
0 0 0
0 0 0
-0.00380807 -0.0302652 0
-0.00363483 -0.0257248 0
-0.00318004 -0.0214387 0
-0.00216012 -0.0180474 0
-0.00157071 -0.0156606 0
-0.00133708 -0.0134976 0
-0.00119738 -0.0114994 0
-0.00108404 -0.0096677 0
-0.000980885 -0.00799942 0
-0.000883221 -0.0064885 0
-0.00078851 -0.00512926 0
-0.0006944 -0.00391852 0
-0.000598417 -0.00285665 0
-0.000498145 -0.00194797 0
-0.000391744 -0.00120055 0
-0.000279024 -0.000625227 0
-0.000163058 -0.000233588 0
-4.86666e-05 -2.82949e-05 0
3.1988e-05 2.33882e-05 0
-0.00948901 -0.0554643 0
-0.00910062 -0.0476 0
-0.0081857 -0.0409615 0
-0.00648253 -0.0353464 0
-0.00524146 -0.0305994 0
-0.0045728 -0.0262713 0
-0.00409994 -0.0223713 0
-0.00370347 -0.0188513 0
-0.00334578 -0.0156727 0
-0.0030115 -0.0128073 0
-0.00269094 -0.010236 0
-0.00237558 -0.00794735 0
-0.00205709 -0.00593767 0
-0.00172772 -0.00420989 0
-0.00138156 -0.00277262 0
-0.00101711 -0.00163758 0
-0.000642049 -0.000814411 0
-0.000283973 -0.000299121 0
-1.76709e-05 -5.7115e-05 0
-0.0176842 -0.0768274 0
-0.0164587 -0.0665648 0
-0.0148765 -0.0579349 0
-0.0127412 -0.0505351 0
-0.01092 -0.0439366 0
-0.00963302 -0.0377972 0
-0.00862664 -0.0322497 0
-0.00777227 -0.0272562 0
-0.00700912 -0.0227595 0
-0.0063041 -0.018713 0
-0.00563464 -0.0150838 0
-0.00498196 -0.0118512 0
-0.00432902 -0.00900474 0
-0.00366081 -0.00654284 0
-0.0029664 -0.0044705 0
-0.0022433 -0.00279625 0
-0.00150556 -0.00152691 0
-0.000799195 -0.000659395 0
-0.000228966 -0.000170205 0
-0.0279349 -0.0941227 0
-0.0256478 -0.0821608 0
-0.0232326 -0.0719504 0
-0.0205801 -0.0630791 0
-0.0182023 -0.0551168 0
-0.0162101 -0.0476312 0
-0.0145423 -0.0407966 0
-0.0130985 -0.0346107 0
-0.0118068 -0.0290255 0
-0.0106183 -0.0239919 0
-0.00949614 -0.0194708 0
-0.00840946 -0.0154346 0
-0.00733097 -0.0118671 0
-0.00623733 -0.00876157 0
-0.00511178 -0.0061187 0
-0.0039497 -0.00394429 0
-0.0027682 -0.00224543 0
-0.00162219 -0.00102631 0
-0.000628727 -0.000283629 0
-0.039677 -0.107284 0
-0.0362455 -0.0942027 0
-0.0329787 -0.0829005 0
-0.0296732 -0.0729093 0
-0.0266318 -0.0639881 0
-0.0239144 -0.0555641 0
-0.0215364 -0.0477978 0
-0.0194304 -0.0407152 0
-0.0175292 -0.034288 0
-0.0157763 -0.0284748 0
-0.0141243 -0.0232376 0
-0.0125313 -0.0185465 0
-0.0109596 -0.0143818 0
-0.00937704 -0.0107331 0
-0.00775979 -0.00759859 0
-0.00609844 -0.00498332 0
-0.0044075 -0.0028982 0
-0.00273988 -0.00135906 0
-0.0012067 -0.000386375 0
-0.0523141 -0.116395 0
-0.0477209 -0.102754 0
-0.0436608 -0.0908525 0
-0.0396692 -0.0801874 0
-0.0358509 -0.0706152 0
-0.0324033 -0.0615541 0
-0.0293036 -0.0531568 0
-0.0265051 -0.0454531 0
-0.0239514 -0.0384263 0
-0.0215861 -0.0320434 0
-0.0193553 -0.0262707 0
-0.0172086 -0.0210794 0
-0.0150989 -0.016449 0
-0.0129848 -0.0123681 0
-0.0108341 -0.00883413 0
-0.00862913 -0.00585423 0
-0.00637585 -0.0034455 0
-0.00411516 -0.0016371 0
-0.001938 -0.00047195 0
-0.0652765 -0.121691 0
-0.0596031 -0.107938 0
-0.0548077 -0.0958535 0
-0.0501847 -0.0849384 0
-0.0455818 -0.075029 0
-0.0413921 -0.0656078 0
-0.0375691 -0.0568471 0
-0.0340719 -0.0487745 0
-0.0308517 -0.0413774 0
-0.0278537 -0.0346291 0
-0.025021 -0.0285005 0
-0.0222963 -0.022966 0
-0.0196243 -0.0180066 0
-0.0169545 -0.0136117 0
-0.0142446 -0.00978064 0
-0.0114658 -0.00652418 0
-0.00860995 -0.00386688 0
-0.00569826 -0.00185073 0
-0.0027917 -0.000537558 0
-0.0781055 -0.123305 0
-0.0714723 -0.109857 0
-0.0660217 -0.0979631 0
-0.0608357 -0.0871477 0
-0.0555164 -0.0772403 0
-0.0506067 -0.0677521 0
-0.046078 -0.0588852 0
-0.0418964 -0.050679 0
-0.0380182 -0.0431266 0
-0.0343905 -0.0362071 0
-0.0309544 -0.0298969 0
-0.0276475 -0.0241743 0
-0.024407 -0.0190236 0
-0.0211733 -0.0144368 0
-0.0178928 -0.0104166 0
-0.0145231 -0.00697827 0
-0.0110378 -0.00415392 0
-0.00743316 -0.00199655 0
-0.00373422 -0.000582426 0
-0.0904021 -0.121709 0
-0.0829636 -0.108885 0
-0.0769759 -0.097466 0
-0.0713053 -0.0870105 0
-0.0653563 -0.0773638 0
-0.059785 -0.0680659 0
-0.0545931 -0.0593306 0
-0.0497614 -0.0512078 0
-0.0452529 -0.0436989 0
-0.0410172 -0.03679 0
-0.0369942 -0.0304633 0
-0.0331175 -0.0247022 0
-0.0293176 -0.0194952 0
-0.0255256 -0.0148382 0
-0.0216761 -0.0107377 0
-0.0177112 -0.00721415 0
-0.0135838 -0.00430611 0
-0.00926186 -0.002075 0
-0.00473165 -0.000606895 0
-0.101906 -0.117371 0
-0.0938337 -0.105373 0
-0.0874385 -0.0946329 0
-0.0813701 -0.0847361 0
-0.0748616 -0.0755664 0
-0.0686954 -0.0666791 0
-0.0628998 -0.0582841 0
-0.0574692 -0.0504387 0
-0.052374 -0.0431529 0
-0.047567 -0.0364205 0
-0.0429881 -0.0302303 0
-0.0385676 -0.0245713 0
-0.0342301 -0.0194368 0
-0.0298975 -0.014827 0
-0.0254925 -0.0107526 0
-0.0209405 -0.00723848 0
-0.0161727 -0.00432829 0
-0.0111272 -0.00208899 0
-0.00575116 -0.000611986 0
-0.112421 -0.110512 0
-0.103883 -0.099543 0
-0.0972052 -0.0896772 0
-0.0908135 -0.0805446 0
-0.0838175 -0.0720512 0
-0.0771374 -0.0637596 0
-0.070811 -0.0558801 0
-0.0648451 -0.0484785 0
-0.0592185 -0.0415732 0
-0.0538884 -0.0351652 0
-0.0487955 -0.0292499 0
-0.0438681 -0.023822 0
-0.0390251 -0.0188796 0
-0.0341802 -0.0144272 0
-0.0292436 -0.0104793 0
-0.0241247 -0.00706428 0
-0.0187321 -0.00422904 0
-0.012975 -0.00204308 0
-0.00676198 -0.000599164 0
-0.121796 -0.101656 0
-0.112961 -0.0918463 0
-0.106106 -0.0829791 0
-0.0994595 -0.0747506 0
-0.0920619 -0.0670583 0
-0.084952 -0.0594975 0
-0.0781717 -0.0522732 0
-0.07174 -0.0454536 0
-0.0656442 -0.0390626 0
-0.0598468 -0.0331076 0
-0.0542901 -0.0275894 0
-0.0489006 -0.0225081 0
-0.0435928 -0.0178661 0
-0.0382723 -0.0136717 0
-0.0328379 -0.0099424 0
-0.0271829 -0.00670896 0
-0.021195 -0.00401939 0
-0.014755 -0.00194296 0
-0.00773602 -0.000570188 0
-0.129955 -0.0911465 0
-0.120966 -0.0825744 0
-0.114024 -0.074816 0
-0.107194 -0.0675928 0
-0.0994791 -0.0608049 0
-0.0920157 -0.054083 0
-0.0848564 -0.0476251 0
-0.0780295 -0.0415 0
-0.0715303 -0.035735 0
-0.0653258 -0.030342 0
-0.0593605 -0.0253264 0
-0.0535598 -0.0206924 0
-0.0478342 -0.0164463 0
-0.0420823 -0.0125993 0
-0.0361922 -0.00917097 0
-0.0300423 -0.00619277 0
-0.0235006 -0.00371197 0
-0.0164225 -0.00179497 0
-0.00864829 -0.00052699 0
-0.136845 -0.0792334 0
-0.127816 -0.0720091 0
-0.120864 -0.0654359 0
-0.113914 -0.0592974 0
-0.105967 -0.0534977 0
-0.0982284 -0.0477009 0
-0.0907638 -0.0420976 0
-0.0836121 -0.036757 0
-0.0767758 -0.0317089 0
-0.0702268 -0.0269681 0
-0.0639114 -0.0225436 0
-0.0577544 -0.0184428 0
-0.0516631 -0.0146747 0
-0.0455298 -0.0112524 0
-0.0392331 -0.00819643 0
-0.0326383 -0.00553748 0
-0.0255957 -0.0033202 0
-0.0179381 -0.0016058 0
-0.00947712 -0.000471582 0
-0.142464 -0.0663907 0
-0.133474 -0.0605127 0
-0.126572 -0.0551433 0
-0.119564 -0.0501173 0
-0.111458 -0.0453447 0
-0.103515 -0.040531 0
-0.095815 -0.0358485 0
-0.0884068 -0.0313624 0
-0.0812993 -0.0271031 0
-0.0744686 -0.0230873 0
-0.0678631 -0.0193261 0
-0.0614073 -0.0158293 0
-0.0550059 -0.0126076 0
-0.0485459 -0.00967485 0
-0.0418978 -0.00705126 0
-0.0349158 -0.0047655 0
-0.0274348 -0.0028578 0
-0.0192684 -0.00138222 0
-0.0102042 -0.000405988 0
-0.146839 -0.0528088 0
-0.137941 -0.0482801 0
-0.131133 -0.0441334 0
-0.124111 -0.040242 0
-0.115904 -0.0365321 0
-0.10782 -0.0327436 0
-0.0999508 -0.0290294 0
-0.0923513 -0.0254497 0
-0.0850365 -0.0220337 0
-0.0779864 -0.0187991 0
-0.0711512 -0.0157581 0
-0.0644556 -0.0129217 0
-0.0578021 -0.0103011 0
-0.0510737 -0.00791036 0
-0.0441343 -0.0057679 0
-0.0368289 -0.00389908 0
-0.0289803 -0.00233833 0
-0.0203861 -0.00113088 0
-0.0108146 -0.000332185 0
-0.150003 -0.0387335 0
-0.141224 -0.0355396 0
-0.134529 -0.0326149 0
-0.127525 -0.0298682 0
-0.119271 -0.027238 0
-0.111107 -0.0244992 0
-0.103129 -0.021784 0
-0.0953999 -0.019146 0
-0.0879394 -0.0166124 0
-0.0807308 -0.0142 0
-0.073726 -0.0119216 0
-0.06685 -0.00978799 0
-0.0600041 -0.00781048 0
-0.0530681 -0.00600182 0
-0.0459013 -0.00437802 0
-0.0383415 -0.00295993 0
-0.0302024 -0.00177494 0
-0.0212696 -0.000858202 0
-0.0112966 -0.000252068 0
-0.151992 -0.0244194 0
-0.143345 -0.0225232 0
-0.136764 -0.0208025 0
-0.129805 -0.0191865 0
-0.12155 -0.0176286 0
-0.113356 -0.0159468 0
-0.105324 -0.0142466 0
-0.0975223 -0.0125716 0
-0.0899747 -0.0109451 0
-0.0826666 -0.0093823 0
-0.0755513 -0.00789509 0
-0.0685545 -0.00649385 0
-0.0615765 -0.00518873 0
-0.0544956 -0.00399061 0
-0.0471679 -0.00291216 0
-0.0394265 -0.00196889 0
-0.0310789 -0.00118024 0
-0.0219028 -0.000570317 0
-0.0116415 -0.00016744 0
-0.152831 -0.00997256 0
-0.144318 -0.0093536 0
-0.137846 -0.00882265 0
-0.130959 -0.00833246 0
-0.122738 -0.00784555 0
-0.114557 -0.00722191 0
-0.106521 -0.00654214 0
-0.0987015 -0.00583938 0
-0.0911225 -0.00513224 0
-0.0837718 -0.0044336 0
-0.0766041 -0.00375384 0
-0.0695452 -0.00310206 0
-0.062496 -0.00248678 0
-0.0553338 -0.00191637 0
-0.0479134 -0.00139955 0
-0.0400658 -0.000945893 0
-0.0315951 -0.000566241 0
-0.0222751 -0.000273037 0
-0.0118438 -7.99979e-05 0
-0.152549 0.00441442 0
-0.144163 0.00379788 0
-0.137792 0.00316548 0
-0.130992 0.00254932 0
-0.122837 0.00197627 0
-0.114712 0.00154865 0
-0.106719 0.0012122 0
-0.0989319 0.00094413 0
-0.0913749 0.000730897 0
-0.0840369 0.000562465 0
-0.0768732 0.000430375 0
-0.0698107 0.000327221 0
-0.0627506 0.000246542 0
-0.055571 0.000182862 0
-0.048127 0.000131763 0
-0.0402497 8.99949e-05 0
-0.0317433 5.56071e-05 0
-0.022381 2.81141e-05 0
-0.0119006 8.64816e-06 0
-0.151171 0.0186212 0
-0.142903 0.0167996 0
-0.136626 0.0150247 0
-0.12992 0.0133211 0
-0.121862 0.0117066 0
-0.11383 0.0102437 0
-0.105926 0.00890448 0
-0.098219 0.00767698 0
-0.0907355 0.00655298 0
-0.0834637 0.00552555 0
-0.0763594 0.00458837 0
-0.0693504 0.00373597 0
-0.0623394 0.0029641 0
-0.055206 0.00227036 0
-0.0478074 0.00165475 0
-0.0399772 0.0011204 0
-0.0315224 0.000674284 0
-0.0222199 0.000327836 0
-0.0118116 9.69624e-05 0
-0.148708 0.0325404 0
-0.140551 0.0295312 0
-0.134362 0.0266307 0
-0.127762 0.023857 0
-0.11983 0.0212212 0
-0.11193 0.018746 0
-0.104157 0.0164261 0
-0.0965783 0.0142602 0
-0.0892185 0.0122452 0
-0.0820652 0.0103774 0
-0.0750745 0.00865274 0
-0.0681752 0.00706759 0
-0.0612721 0.00561993 0
-0.0542475 0.00431032 0
-0.0469623 0.00314305 0
-0.0392548 0.00212743 0
-0.0309381 0.00127907 0
-0.021796 0.000620981 0
-0.0115791 0.000183456 0
-0.145176 0.0460045 0
-0.137128 0.0418363 0
-0.131026 0.0378342 0
-0.124545 0.0340202 0
-0.116771 0.0303963 0
-0.109039 0.0269398 0
-0.101439 0.0236699 0
-0.0940355 0.0205957 0
-0.0868487 0.0177196 0
-0.0798652 0.0150407 0
-0.0730412 0.0125568 0
-0.0663068 0.0102662 0
-0.0595691 0.0081686 0
-0.0527143 0.00626734 0
-0.0456088 0.00457059 0
-0.0380975 0.00309337 0
-0.0300024 0.00185935 0
-0.0211181 0.000902463 0
-0.011208 0.000266659 0
-0.140588 0.058929 0
-0.132653 0.0536096 0
-0.126642 0.048522 0
-0.120303 0.043692 0
-0.112718 0.0391099 0
-0.105192 0.0347082 0
-0.0978085 0.0305271 0
-0.090626 0.0265846 0
-0.0836613 0.0228876 0
-0.0768985 0.0194375 0
-0.0702935 0.0162338 0
-0.0637777 0.0132757 0
-0.0572612 0.0105646 0
-0.0506352 0.00810598 0
-0.0437727 0.00591128 0
-0.036528 0.00400049 0
-0.028734 0.00240451 0
-0.0201997 0.00116717 0
-0.0107057 0.000345092 0
-0.134953 0.0711326 0
-0.127144 0.0646811 0
-0.121239 0.0585368 0
-0.115068 0.0527293 0
-0.107708 0.0472294 0
-0.10043 0.0419283 0
-0.093309 0.036885 0
-0.0863959 0.0321251 0
-0.0797027 0.0276587 0
-0.073211 0.0234889 0
-0.0668762 0.0196158 0
-0.0606311 0.0160394 0
-0.0543896 0.012762 0
-0.0480486 0.00979039 0
-0.0414893 0.00713867 0
-0.0345766 0.00483079 0
-0.0271578 0.00290371 0
-0.0190589 0.00140989 0
-0.0100819 0.000417241 0
-0.128295 0.0824309 0
-0.120635 0.0748737 0
-0.114866 0.0677096 0
-0.108892 0.0609727 0
-0.101794 0.0546102 0
-0.0948085 0.048469 0
-0.0879978 0.0426255 0
-0.081403 0.0371116 0
-0.0750311 0.0319398 0
-0.0688604 0.0271137 0
-0.0628457 0.0226337 0
-0.0569217 0.0184997 0
-0.0510063 0.014714 0
-0.045003 0.0112841 0
-0.0388024 0.00822585 0
-0.0322821 0.00556589 0
-0.0253054 0.00334587 0
-0.0177187 0.00162524 0
-0.00934921 0.000481534 0
-0.120622 0.092686 0
-0.113159 0.0840346 0
-0.107569 0.0758893 0
-0.10183 0.0682675 0
-0.0950399 0.0611008 0
-0.088396 0.0541918 0
-0.081945 0.0476248 0
-0.0757186 0.0414346 0
-0.0697173 0.0356349 0
-0.0639165 0.0302293 0
-0.0582703 0.0252172 0
-0.0527153 0.0205979 0
-0.0471739 0.0163732 0
-0.041557 0.0125503 0
-0.0357655 0.00914545 0
-0.029691 0.006187 0
-0.0232149 0.00371957 0
-0.016207 0.00180766 0
-0.00852278 0.000536331 0
-0.111972 0.101565 0
-0.104781 0.0918866 0
-0.0994199 0.082837 0
-0.0939552 0.0744141 0
-0.0875281 0.0665351 0
-0.0812777 0.0589521 0
-0.0752369 0.0517551 0
-0.0694282 0.0449819 0
-0.0638461 0.0386465 0
-0.0584624 0.0327518 0
-0.0532305 0.0272956 0
-0.0480891 0.0222756 0
-0.0429656 0.0176922 0
-0.0377787 0.0135518 0
-0.0324406 0.00986996 0
-0.0268578 0.00667513 0
-0.0209314 0.00401317 0
-0.0145565 0.00195141 0
-0.00762055 0.00057992 0
-0.102421 0.108859 0
-0.0955942 0.0982249 0
-0.0905231 0.0883584 0
-0.0853807 0.0792344 0
-0.079368 0.0707507 0
-0.0735584 0.0626035 0
-0.0679762 0.0548868 0
-0.0626334 0.0476404 0
-0.0575169 0.0408774 0
-0.0525946 0.0345985 0
-0.0478193 0.0287994 0
-0.0431321 0.0234755 0
-0.0384654 0.018625 0
-0.0337463 0.0142526 0
-0.0288987 0.0103723 0
-0.0238446 0.00701143 0
-0.0185061 0.004215 0
-0.0128051 0.00205065 0
-0.00666327 0.000610528 0
-0.0920603 0.114322 0
-0.0857142 0.102824 0
-0.0810061 0.0922603 0
-0.0762282 0.0825611 0
-0.0706792 0.0735858 0
-0.0653588 0.0649978 0
-0.0602837 0.05689 0
-0.0554529 0.0492987 0
-0.050845 0.0422332 0
-0.046424 0.0356906 0
-0.0421425 0.0296633 0
-0.0379441 0.0241439 0
-0.0337671 0.0191283 0
-0.0295468 0.0146188 0
-0.0252187 0.010627 0
-0.020721 0.00717786 0
-0.0159965 0.00431367 0
-0.0109951 0.00209958 0
-0.00567451 0.000626347 0
-0.0810682 0.117538 0
-0.0753312 0.105363 0
-0.0710553 0.0942871 0
-0.0666589 0.0841753 0
-0.061607 0.0748581 0
-0.0568243 0.0659826 0
-0.0523025 0.0576379 0
-0.0480249 0.0498519 0
-0.0439623 0.0426275 0
-0.0400756 0.0359569 0
-0.0363179 0.0298291 0
-0.0326359 0.0242338 0
-0.0289737 0.0191643 0
-0.0252751 0.0146206 0
-0.0214869 0.0106115 0
-0.0175626 0.00715817 0
-0.0134657 0.00429863 0
-0.00917348 0.00209262 0
-0.0046805 0.000625579 0
-0.069673 0.118316 0
-0.0646896 0.105655 0
-0.0608778 0.0942485 0
-0.0568558 0.0838727 0
-0.0523342 0.0743866 0
-0.0481321 0.0654138 0
-0.0442009 0.0570166 0
-0.0405076 0.0492092 0
-0.0370169 0.0419875 0
-0.0336879 0.0353393 0
-0.0304745 0.0292506 0
-0.0273273 0.0237084 0
-0.024196 0.0187042 0
-0.0210327 0.0142354 0
-0.0177949 0.0103081 0
-0.0144503 0.00693928 0
-0.0109812 0.00416098 0
-0.00739091 0.00202478 0
-0.00370988 0.000606497 0
-0.058191 0.116269 0
-0.0540574 0.103398 0
-0.050673 0.0918741 0
-0.047019 0.0814366 0
-0.0430827 0.0720154 0
-0.0394921 0.0631766 0
-0.0361708 0.0549385 0
-0.0330771 0.0473028 0
-0.0301711 0.040261 0
-0.0274104 0.0337983 0
-0.0247501 0.0278981 0
-0.0221446 0.0225458 0
-0.0195498 0.0177313 0
-0.016925 0.0134504 0
-0.0142377 0.00970674 0
-0.0114674 0.00651313 0
-0.00861302 0.00389456 0
-0.00570053 0.00189212 0
-0.00279318 0.000567562 0
-0.0470094 0.111001 0
-0.043697 0.0982553 0
-0.0406669 0.086901 0
-0.0374318 0.0767166 0
-0.0341177 0.0676606 0
-0.0311337 0.0592085 0
-0.028417 0.0513532 0
-0.0259204 0.0440946 0
-0.0235967 0.037422 0
-0.0214006 0.0313179 0
-0.0192883 0.0257635 0
-0.0172185 0.020743 0
-0.015153 0.0162456 0
-0.0130584 0.0122666 0
-0.0109101 0.0088081 0
-0.00869738 0.00587918 0
-0.00643152 0.0034977 0
-0.0041563 0.00169264 0
-0.00196199 0.000507603 0
-0.0363942 0.102126 0
-0.0338513 0.0900025 0
-0.0311659 0.0792998 0
-0.0283958 0.0697638 0
-0.0256804 0.061331 0
-0.0232728 0.0534929 0
-0.0211434 0.0462443 0
-0.0192292 0.0395777 0
-0.017471 0.0334742 0
-0.0158199 0.0279104 0
-0.0142348 0.0228648 0
-0.0126794 0.0183209 0
-0.011122 0.0142684 0
-0.00953595 0.0107034 0
-0.00790314 0.00762763 0
-0.00621947 0.00504793 0
-0.00450368 0.00297575 0
-0.00281033 0.00142762 0
-0.00124767 0.000426216 0
-0.0265731 0.0894011 0
-0.0248389 0.0785952 0
-0.0225213 0.069091 0
-0.0201155 0.0605819 0
-0.0179454 0.053001 0
-0.0161082 0.0460147 0
-0.0145558 0.0396177 0
-0.0132006 0.0337763 0
-0.0119749 0.0284546 0
-0.0108311 0.0236208 0
-0.00973385 0.0192511 0
-0.00865406 0.0153295 0
-0.00756714 0.0118477 0
-0.00645303 0.00880381 0
-0.00529872 0.00620117 0
-0.00410348 0.00404598 0
-0.00288799 0.00234517 0
-0.00170869 0.0011042 0
-0.000679188 0.00032458 0
-0.0177364 0.0728411 0
-0.0168661 0.063952 0
-0.0149667 0.056044 0
-0.0128112 0.0489321 0
-0.0111411 0.0425621 0
-0.00988186 0.036762 0
-0.00888641 0.0315134 0
-0.00804518 0.0267566 0
-0.0072946 0.0224415 0
-0.00659675 0.0185329 0
-0.00592604 0.0150078 0
-0.00526254 0.0118532 0
-0.00458946 0.00906412 0
-0.00389303 0.00664201 0
-0.00316429 0.00459274 0
-0.00240333 0.00292379 0
-0.00162737 0.00164032 0
-0.000884937 0.000740119 0
-0.000278652 0.000207249 0
-0.0101885 0.0525922 0
-0.0100225 0.0461566 0
-0.00861488 0.0400982 0
-0.00678505 0.0347191 0
-0.00561756 0.0300129 0
-0.00491068 0.0258125 0
-0.00440385 0.0220465 0
-0.00398873 0.0186455 0
-0.00362097 0.0155643 0
-0.00327866 0.0127752 0
-0.00294802 0.010262 0
-0.0026183 0.00801698 0
-0.00228018 0.00603906 0
-0.0019257 0.00433256 0
-0.00154934 0.00290568 0
-0.0011507 0.00176783 0
-0.000740056 0.00092513 0
-0.000349713 0.00037332 0
-5.2486e-05 8.71025e-05 0