<?xml version="1.0"?>
<VTKFile type="UnstructuredGrid">
  <UnstructuredGrid>
  <Piece NumberOfPoints="3321"  NumberOfCells="1600">
    <Points>
      <DataArray type="Float64" NumberOfComponents="3" format="ascii">
0 0 0.1
1 0 0.1
1 0.5 0.1
0 0.5 0.1
0.025 0 0.1
0.05 0 0.1
0.075 0 0.1
0.1 0 0.1
0.125 0 0.1
0.15 0 0.1
0.175 0 0.1
0.2 0 0.1
0.225 0 0.1
0.25 0 0.1
0.275 0 0.1
0.3 0 0.1
0.325 0 0.1
0.35 0 0.1
0.375 0 0.1
0.4 0 0.1
0.425 0 0.1
0.45 0 0.1
0.475 0 0.1
0.5 0 0.1
0.525 0 0.1
0.55 0 0.1
0.575 0 0.1
0.6 0 0.1
0.625 0 0.1
0.65 0 0.1
0.675 0 0.1
0.7 0 0.1
0.725 0 0.1
0.75 0 0.1
0.775 0 0.1
0.8 0 0.1
0.825 0 0.1
0.85 0 0.1
0.875 0 0.1
0.9 0 0.1
0.925 0 0.1
0.95 0 0.1
0.975 0 0.1
0.0125 0 0.1
0.0375 0 0.1
0.0625 0 0.1
0.0875 0 0.1
0.1125 0 0.1
0.1375 0 0.1
0.1625 0 0.1
0.1875 0 0.1
0.2125 0 0.1
0.2375 0 0.1
0.2625 0 0.1
0.2875 0 0.1
0.3125 0 0.1
0.3375 0 0.1
0.3625 0 0.1
0.3875 0 0.1
0.4125 0 0.1
0.4375 0 0.1
0.4625 0 0.1
0.4875 0 0.1
0.5125 0 0.1
0.5375 0 0.1
0.5625 0 0.1
0.5875 0 0.1
0.6125 0 0.1
0.6375 0 0.1
0.6625 0 0.1
0.6875 0 0.1
0.7125 0 0.1
0.7375 0 0.1
0.7625 0 0.1
0.7875 0 0.1
0.8125 0 0.1
0.8375 0 0.1
0.8625 0 0.1
0.8875 0 0.1
0.9125 0 0.1
0.9375 0 0.1
0.9625 0 0.1
0.9875 0 0.1
1 0.025 0.1
1 0.05 0.1
1 0.075 0.1
1 0.1 0.1
1 0.125 0.1
1 0.15 0.1
1 0.175 0.1
1 0.2 0.1
1 0.225 0.1
1 0.25 0.1
1 0.275 0.1
1 0.3 0.1
1 0.325 0.1
1 0.35 0.1
1 0.375 0.1
1 0.4 0.1
1 0.425 0.1
1 0.45 0.1
1 0.475 0.1
1 0.0125 0.1
1 0.0375 0.1
1 0.0625 0.1
1 0.0875 0.1
1 0.1125 0.1
1 0.1375 0.1
1 0.1625 0.1
1 0.1875 0.1
1 0.2125 0.1
1 0.2375 0.1
1 0.2625 0.1
1 0.2875 0.1
1 0.3125 0.1
1 0.3375 0.1
1 0.3625 0.1
1 0.3875 0.1
1 0.4125 0.1
1 0.4375 0.1
1 0.4625 0.1
1 0.4875 0.1
0.975 0.5 0.1
0.95 0.5 0.1
0.925 0.5 0.1
0.9 0.5 0.1
0.875 0.5 0.1
0.85 0.5 0.1
0.825 0.5 0.1
0.8 0.5 0.1
0.775 0.5 0.1
0.75 0.5 0.1
0.725 0.5 0.1
0.7 0.5 0.1
0.675 0.5 0.1
0.65 0.5 0.1
0.625 0.5 0.1
0.6 0.5 0.1
0.575 0.5 0.1
0.55 0.5 0.1
0.525 0.5 0.1
0.5 0.5 0.1
0.475 0.5 0.1
0.45 0.5 0.1
0.425 0.5 0.1
0.4 0.5 0.1
0.375 0.5 0.1
0.35 0.5 0.1
0.325 0.5 0.1
0.3 0.5 0.1
0.275 0.5 0.1
0.25 0.5 0.1
0.225 0.5 0.1
0.2 0.5 0.1
0.175 0.5 0.1
0.15 0.5 0.1
0.125 0.5 0.1
0.1 0.5 0.1
0.075 0.5 0.1
0.05 0.5 0.1
0.025 0.5 0.1
0.9875 0.5 0.1
0.9625 0.5 0.1
0.9375 0.5 0.1
0.9125 0.5 0.1
0.8875 0.5 0.1
0.8625 0.5 0.1
0.8375 0.5 0.1
0.8125 0.5 0.1
0.7875 0.5 0.1
0.7625 0.5 0.1
0.7375 0.5 0.1
0.7125 0.5 0.1
0.6875 0.5 0.1
0.6625 0.5 0.1
0.6375 0.5 0.1
0.6125 0.5 0.1
0.5875 0.5 0.1
0.5625 0.5 0.1
0.5375 0.5 0.1
0.5125 0.5 0.1
0.4875 0.5 0.1
0.4625 0.5 0.1
0.4375 0.5 0.1
0.4125 0.5 0.1
0.3875 0.5 0.1
0.3625 0.5 0.1
0.3375 0.5 0.1
0.3125 0.5 0.1
0.2875 0.5 0.1
0.2625 0.5 0.1
0.2375 0.5 0.1
0.2125 0.5 0.1
0.1875 0.5 0.1
0.1625 0.5 0.1
0.1375 0.5 0.1
0.1125 0.5 0.1
0.0875 0.5 0.1
0.0625 0.5 0.1
0.0375 0.5 0.1
0.0125 0.5 0.1
0 0.475 0.1
0 0.45 0.1
0 0.425 0.1
0 0.4 0.1
0 0.375 0.1
0 0.35 0.1
0 0.325 0.1
0 0.3 0.1
0 0.275 0.1
0 0.25 0.1
0 0.225 0.1
0 0.2 0.1
0 0.175 0.1
0 0.15 0.1
0 0.125 0.1
0 0.1 0.1
0 0.075 0.1
0 0.05 0.1
0 0.025 0.1
0 0.4875 0.1
0 0.4625 0.1
0 0.4375 0.1
0 0.4125 0.1
0 0.3875 0.1
0 0.3625 0.1
0 0.3375 0.1
0 0.3125 0.1
0 0.2875 0.1
0 0.2625 0.1
0 0.2375 0.1
0 0.2125 0.1
0 0.1875 0.1
0 0.1625 0.1
0 0.1375 0.1
0 0.1125 0.1
0 0.0875 0.1
0 0.0625 0.1
0 0.0375 0.1
0 0.0125 0.1
0.975 0.475 0.1
0.975 0.45 0.1
0.975 0.425 0.1
0.975 0.4 0.1
0.975 0.375 0.1
0.975 0.35 0.1
0.975 0.325 0.1
0.975 0.3 0.1
0.975 0.275 0.1
0.975 0.25 0.1
0.975 0.225 0.1
0.975 0.2 0.1
0.975 0.175 0.1
0.975 0.15 0.1
0.975 0.125 0.1
0.975 0.1 0.1
0.975 0.075 0.1
0.975 0.05 0.1
0.975 0.025 0.1
0.95 0.475 0.1
0.95 0.45 0.1
0.95 0.425 0.1
0.95 0.4 0.1
0.95 0.375 0.1
0.95 0.35 0.1
0.95 0.325 0.1
0.95 0.3 0.1
0.95 0.275 0.1
0.95 0.25 0.1
0.95 0.225 0.1
0.95 0.2 0.1
0.95 0.175 0.1
0.95 0.15 0.1
0.95 0.125 0.1
0.95 0.1 0.1
0.95 0.075 0.1
0.95 0.05 0.1
0.95 0.025 0.1
0.925 0.475 0.1
0.925 0.45 0.1
0.925 0.425 0.1
0.925 0.4 0.1
0.925 0.375 0.1
0.925 0.35 0.1
0.925 0.325 0.1
0.925 0.3 0.1
0.925 0.275 0.1
0.925 0.25 0.1
0.925 0.225 0.1
0.925 0.2 0.1
0.925 0.175 0.1
0.925 0.15 0.1
0.925 0.125 0.1
0.925 0.1 0.1
0.925 0.075 0.1
0.925 0.05 0.1
0.925 0.025 0.1
0.9 0.475 0.1
0.9 0.45 0.1
0.9 0.425 0.1
0.9 0.4 0.1
0.9 0.375 0.1
0.9 0.35 0.1
0.9 0.325 0.1
0.9 0.3 0.1
0.9 0.275 0.1
0.9 0.25 0.1
0.9 0.225 0.1
0.9 0.2 0.1
0.9 0.175 0.1
0.9 0.15 0.1
0.9 0.125 0.1
0.9 0.1 0.1
0.9 0.075 0.1
0.9 0.05 0.1
0.9 0.025 0.1
0.875 0.475 0.1
0.875 0.45 0.1
0.875 0.425 0.1
0.875 0.4 0.1
0.875 0.375 0.1
0.875 0.35 0.1
0.875 0.325 0.1
0.875 0.3 0.1
0.875 0.275 0.1
0.875 0.25 0.1
0.875 0.225 0.1
0.875 0.2 0.1
0.875 0.175 0.1
0.875 0.15 0.1
0.875 0.125 0.1
0.875 0.1 0.1
0.875 0.075 0.1
0.875 0.05 0.1
0.875 0.025 0.1
0.85 0.475 0.1
0.85 0.45 0.1
0.85 0.425 0.1
0.85 0.4 0.1
0.85 0.375 0.1
0.85 0.35 0.1
0.85 0.325 0.1
0.85 0.3 0.1
0.85 0.275 0.1
0.85 0.25 0.1
0.85 0.225 0.1
0.85 0.2 0.1
0.85 0.175 0.1
0.85 0.15 0.1
0.85 0.125 0.1
0.85 0.1 0.1
0.85 0.075 0.1
0.85 0.05 0.1
0.85 0.025 0.1
0.825 0.475 0.1
0.825 0.45 0.1
0.825 0.425 0.1
0.825 0.4 0.1
0.825 0.375 0.1
0.825 0.35 0.1
0.825 0.325 0.1
0.825 0.3 0.1
0.825 0.275 0.1
0.825 0.25 0.1
0.825 0.225 0.1
0.825 0.2 0.1
0.825 0.175 0.1
0.825 0.15 0.1
0.825 0.125 0.1
0.825 0.1 0.1
0.825 0.075 0.1
0.825 0.05 0.1
0.825 0.025 0.1
0.8 0.475 0.1
0.8 0.45 0.1
0.8 0.425 0.1
0.8 0.4 0.1
0.8 0.375 0.1
0.8 0.35 0.1
0.8 0.325 0.1
0.8 0.3 0.1
0.8 0.275 0.1
0.8 0.25 0.1
0.8 0.225 0.1
0.8 0.2 0.1
0.8 0.175 0.1
0.8 0.15 0.1
0.8 0.125 0.1
0.8 0.1 0.1
0.8 0.075 0.1
0.8 0.05 0.1
0.8 0.025 0.1
0.775 0.475 0.1
0.775 0.45 0.1
0.775 0.425 0.1
0.775 0.4 0.1
0.775 0.375 0.1
0.775 0.35 0.1
0.775 0.325 0.1
0.775 0.3 0.1
0.775 0.275 0.1
0.775 0.25 0.1
0.775 0.225 0.1
0.775 0.2 0.1
0.775 0.175 0.1
0.775 0.15 0.1
0.775 0.125 0.1
0.775 0.1 0.1
0.775 0.075 0.1
0.775 0.05 0.1
0.775 0.025 0.1
0.75 0.475 0.1
0.75 0.45 0.1
0.75 0.425 0.1
0.75 0.4 0.1
0.75 0.375 0.1
0.75 0.35 0.1
0.75 0.325 0.1
0.75 0.3 0.1
0.75 0.275 0.1
0.75 0.25 0.1
0.75 0.225 0.1
0.75 0.2 0.1
0.75 0.175 0.1
0.75 0.15 0.1
0.75 0.125 0.1
0.75 0.1 0.1
0.75 0.075 0.1
0.75 0.05 0.1
0.75 0.025 0.1
0.725 0.475 0.1
0.725 0.45 0.1
0.725 0.425 0.1
0.725 0.4 0.1
0.725 0.375 0.1
0.725 0.35 0.1
0.725 0.325 0.1
0.725 0.3 0.1
0.725 0.275 0.1
0.725 0.25 0.1
0.725 0.225 0.1
0.725 0.2 0.1
0.725 0.175 0.1
0.725 0.15 0.1
0.725 0.125 0.1
0.725 0.1 0.1
0.725 0.075 0.1
0.725 0.05 0.1
0.725 0.025 0.1
0.7 0.475 0.1
0.7 0.45 0.1
0.7 0.425 0.1
0.7 0.4 0.1
0.7 0.375 0.1
0.7 0.35 0.1
0.7 0.325 0.1
0.7 0.3 0.1
0.7 0.275 0.1
0.7 0.25 0.1
0.7 0.225 0.1
0.7 0.2 0.1
0.7 0.175 0.1
0.7 0.15 0.1
0.7 0.125 0.1
0.7 0.1 0.1
0.7 0.075 0.1
0.7 0.05 0.1
0.7 0.025 0.1
0.675 0.475 0.1
0.675 0.45 0.1
0.675 0.425 0.1
0.675 0.4 0.1
0.675 0.375 0.1
0.675 0.35 0.1
0.675 0.325 0.1
0.675 0.3 0.1
0.675 0.275 0.1
0.675 0.25 0.1
0.675 0.225 0.1
0.675 0.2 0.1
0.675 0.175 0.1
0.675 0.15 0.1
0.675 0.125 0.1
0.675 0.1 0.1
0.675 0.075 0.1
0.675 0.05 0.1
0.675 0.025 0.1
0.65 0.475 0.1
0.65 0.45 0.1
0.65 0.425 0.1
0.65 0.4 0.1
0.65 0.375 0.1
0.65 0.35 0.1
0.65 0.325 0.1
0.65 0.3 0.1
0.65 0.275 0.1
0.65 0.25 0.1
0.65 0.225 0.1
0.65 0.2 0.1
0.65 0.175 0.1
0.65 0.15 0.1
0.65 0.125 0.1
0.65 0.1 0.1
0.65 0.075 0.1
0.65 0.05 0.1
0.65 0.025 0.1
0.625 0.475 0.1
0.625 0.45 0.1
0.625 0.425 0.1
0.625 0.4 0.1
0.625 0.375 0.1
0.625 0.35 0.1
0.625 0.325 0.1
0.625 0.3 0.1
0.625 0.275 0.1
0.625 0.25 0.1
0.625 0.225 0.1
0.625 0.2 0.1
0.625 0.175 0.1
0.625 0.15 0.1
0.625 0.125 0.1
0.625 0.1 0.1
0.625 0.075 0.1
0.625 0.05 0.1
0.625 0.025 0.1
0.6 0.475 0.1
0.6 0.45 0.1
0.6 0.425 0.1
0.6 0.4 0.1
0.6 0.375 0.1
0.6 0.35 0.1
0.6 0.325 0.1
0.6 0.3 0.1
0.6 0.275 0.1
0.6 0.25 0.1
0.6 0.225 0.1
0.6 0.2 0.1
0.6 0.175 0.1
0.6 0.15 0.1
0.6 0.125 0.1
0.6 0.1 0.1
0.6 0.075 0.1
0.6 0.05 0.1
0.6 0.025 0.1
0.575 0.475 0.1
0.575 0.45 0.1
0.575 0.425 0.1
0.575 0.4 0.1
0.575 0.375 0.1
0.575 0.35 0.1
0.575 0.325 0.1
0.575 0.3 0.1
0.575 0.275 0.1
0.575 0.25 0.1
0.575 0.225 0.1
0.575 0.2 0.1
0.575 0.175 0.1
0.575 0.15 0.1
0.575 0.125 0.1
0.575 0.1 0.1
0.575 0.075 0.1
0.575 0.05 0.1
0.575 0.025 0.1
0.55 0.475 0.1
0.55 0.45 0.1
0.55 0.425 0.1
0.55 0.4 0.1
0.55 0.375 0.1
0.55 0.35 0.1
0.55 0.325 0.1
0.55 0.3 0.1
0.55 0.275 0.1
0.55 0.25 0.1
0.55 0.225 0.1
0.55 0.2 0.1
0.55 0.175 0.1
0.55 0.15 0.1
0.55 0.125 0.1
0.55 0.1 0.1
0.55 0.075 0.1
0.55 0.05 0.1
0.55 0.025 0.1
0.525 0.475 0.1
0.525 0.45 0.1
0.525 0.425 0.1
0.525 0.4 0.1
0.525 0.375 0.1
0.525 0.35 0.1
0.525 0.325 0.1
0.525 0.3 0.1
0.525 0.275 0.1
0.525 0.25 0.1
0.525 0.225 0.1
0.525 0.2 0.1
0.525 0.175 0.1
0.525 0.15 0.1
0.525 0.125 0.1
0.525 0.1 0.1
0.525 0.075 0.1
0.525 0.05 0.1
0.525 0.025 0.1
0.5 0.475 0.1
0.5 0.45 0.1
0.5 0.425 0.1
0.5 0.4 0.1
0.5 0.375 0.1
0.5 0.35 0.1
0.5 0.325 0.1
0.5 0.3 0.1
0.5 0.275 0.1
0.5 0.25 0.1
0.5 0.225 0.1
0.5 0.2 0.1
0.5 0.175 0.1
0.5 0.15 0.1
0.5 0.125 0.1
0.5 0.1 0.1
0.5 0.075 0.1
0.5 0.05 0.1
0.5 0.025 0.1
0.475 0.475 0.1
0.475 0.45 0.1
0.475 0.425 0.1
0.475 0.4 0.1
0.475 0.375 0.1
0.475 0.35 0.1
0.475 0.325 0.1
0.475 0.3 0.1
0.475 0.275 0.1
0.475 0.25 0.1
0.475 0.225 0.1
0.475 0.2 0.1
0.475 0.175 0.1
0.475 0.15 0.1
0.475 0.125 0.1
0.475 0.1 0.1
0.475 0.075 0.1
0.475 0.05 0.1
0.475 0.025 0.1
0.45 0.475 0.1
0.45 0.45 0.1
0.45 0.425 0.1
0.45 0.4 0.1
0.45 0.375 0.1
0.45 0.35 0.1
0.45 0.325 0.1
0.45 0.3 0.1
0.45 0.275 0.1
0.45 0.25 0.1
0.45 0.225 0.1
0.45 0.2 0.1
0.45 0.175 0.1
0.45 0.15 0.1
0.45 0.125 0.1
0.45 0.1 0.1
0.45 0.075 0.1
0.45 0.05 0.1
0.45 0.025 0.1
0.425 0.475 0.1
0.425 0.45 0.1
0.425 0.425 0.1
0.425 0.4 0.1
0.425 0.375 0.1
0.425 0.35 0.1
0.425 0.325 0.1
0.425 0.3 0.1
0.425 0.275 0.1
0.425 0.25 0.1
0.425 0.225 0.1
0.425 0.2 0.1
0.425 0.175 0.1
0.425 0.15 0.1
0.425 0.125 0.1
0.425 0.1 0.1
0.425 0.075 0.1
0.425 0.05 0.1
0.425 0.025 0.1
0.4 0.475 0.1
0.4 0.45 0.1
0.4 0.425 0.1
0.4 0.4 0.1
0.4 0.375 0.1
0.4 0.35 0.1
0.4 0.325 0.1
0.4 0.3 0.1
0.4 0.275 0.1
0.4 0.25 0.1
0.4 0.225 0.1
0.4 0.2 0.1
0.4 0.175 0.1
0.4 0.15 0.1
0.4 0.125 0.1
0.4 0.1 0.1
0.4 0.075 0.1
0.4 0.05 0.1
0.4 0.025 0.1
0.375 0.475 0.1
0.375 0.45 0.1
0.375 0.425 0.1
0.375 0.4 0.1
0.375 0.375 0.1
[...]
    <PointData>
      <DataArray type="Float64" NumberOfComponents="3" Name="Velocity" format="ascii">
0 0 0
0 0 0
0 0 0
0 0 0
0 0 0
0 0 0
0 0 0
0 0 0
0 0 0
0 0 0
0 0 0
0 0 0
0 0 0
0 0 0
0 0 0
0 0 0
0 0 0
0 0 0
0 0 0
0 0 0
0 0 0
0 0 0
0 0 0
0 0 0
0 0 0
0 0 0
0 0 0
0 0 0
0 0 0
0 0 0
0 0 0
0 0 0
0 0 0
0 0 0
0 0 0
0 0 0
0 0 0
0 0 0
0 0 0
0 0 0
0 0 0
0 0 0
0 0 0
0 0 0
0 0 0
0 0 0
0 0 0
0 0 0
0 0 0
0 0 0
0 0 0
0 0 0
0 0 0
0 0 0
0 0 0
0 0 0
0 0 0
0 0 0
0 0 0
0 0 0
0 0 0
0 0 0
0 0 0
0 0 0
0 0 0
0 0 0
0 0 0
0 0 0
0 0 0
0 0 0
0 0 0
0 0 0
0 0 0
0 0 0
0 0 0
0 0 0
0 0 0
0 0 0
0 0 0
0 0 0
0 0 0
0 0 0
0 0 0
0 0 0
0 0 0
0 0 0
0 0 0
0 0 0
0 0 0
0 0 0
0 0 0
0 0 0
0 0 0
0 0 0
0 0 0
0 0 0
0 0 0
0 0 0
0 0 0
0 0 0
0 0 0
0 0 0
0 0 0
0 0 0
0 0 0
0 0 0
0 0 0
0 0 0
0 0 0
0 0 0
0 0 0
0 0 0
0 0 0
0 0 0
0 0 0
0 0 0
0 0 0
0 0 0
0 0 0
0 0 0
0 0 0
0 0 0
0.0280844 -0.0479448 0
0.00494078 -0.0541698 0
0.00109246 -0.0313482 0
0.00537801 -0.0385035 0
-0.00193201 -0.0528367 0
-0.0157074 -0.0594704 0
-0.024495 -0.0615677 0
-0.0295682 -0.0553183 0
-0.0374531 -0.0482366 0
-0.0468613 -0.044747 0
-0.0562905 -0.0418007 0
-0.06312 -0.0379912 0
-0.0684673 -0.032099 0
-0.0727877 -0.0265737 0
-0.0765067 -0.020445 0
-0.0801384 -0.0143723 0
-0.0828862 -0.010338 0
-0.0839319 -0.00550899 0
-0.0844183 -0.000157748 0
-0.0837175 0.00427389 0
-0.082198 0.00979407 0
-0.0803223 0.0153138 0
-0.0779771 0.02013 0
-0.0750659 0.0238936 0
-0.0709466 0.0274472 0
-0.0672829 0.0324819 0
-0.0632601 0.0386729 0
-0.0591195 0.0438337 0
-0.0522169 0.0459691 0
-0.0434356 0.0460948 0
-0.0350901 0.0465989 0
-0.0292194 0.0519584 0
-0.0234525 0.0597194 0
-0.0150504 0.0600759 0
-0.00437896 0.0481994 0
0.00268447 0.0321045 0
-0.00250313 0.0308484 0
-0.00220276 0.0536061 0
0.0303537 0.0550001 0
0.0390386 0.0113621 0
0.0146705 -0.0594291 0
0.000648536 -0.0416239 0
0.00424539 -0.0334896 0
0.0028795 -0.045135 0
-0.00856764 -0.0567468 0
-0.0210625 -0.0620645 0
-0.0269472 -0.0587238 0
-0.0329812 -0.0511282 0
-0.0421224 -0.0462197 0
-0.0517962 -0.04334 0
-0.060048 -0.0403307 0
-0.0657348 -0.035136 0
-0.0707326 -0.0293163 0
-0.0746683 -0.0234499 0
-0.0782556 -0.0174942 0
-0.0818458 -0.0123733 0
-0.0834122 -0.00798223 0
-0.0840657 -0.00291605 0
-0.0843885 0.00190183 0
-0.0829915 0.00702978 0
-0.0812147 0.0125493 0
-0.0791456 0.0177476 0
-0.0765358 0.022105 0
-0.0729937 0.0255072 0
-0.0689852 0.0299987 0
-0.0652822 0.0355006 0
-0.0614351 0.0415453 0
-0.0559535 0.0449788 0
-0.0478581 0.0459339 0
-0.0390392 0.0462786 0
-0.0320358 0.0489263 0
-0.0265353 0.0562363 0
-0.019601 0.0608704 0
-0.00969835 0.0544609 0
0.000465776 0.0400475 0
0.00148034 0.0304017 0
-0.00679422 0.039544 0
0.0147103 0.063452 0
0.0263645 -0.000687105 0
0 0 0
0 0 0
0 0 0
0 0 0
0 0 0
0 0 0
0 0 0
0 0 0
0 0 0
0 0 0
0 0 0
0 0 0
0 0 0
0 0 0
0 0 0
0 0 0
0 0 0
0 0 0
0 0 0
0 0 0
0 0 0
0 0 0
0 0 0
0 0 0
0 0 0
0 0 0
0 0 0
0 0 0
0 0 0
0 0 0
0 0 0
0 0 0
0 0 0
0 0 0
0 0 0
0 0 0
0 0 0
0 0 0
0 0 0
0.0219161 -0.0275328 0
0.0144038 -0.0216553 0
0.0271636 -0.0129425 0
0.0355109 -0.00647734 0
0.0245384 -0.00819984 0
0.0259438 -0.00855614 0
0.0264535 -0.00776367 0
0.0265503 -0.00666912 0
0.0266092 -0.00567291 0
0.0266723 -0.0048568 0
0.0267268 -0.00415252 0
0.02677 -0.00352386 0
0.0268016 -0.00293964 0
0.0268223 -0.00237918 0
0.0268358 -0.00183532 0
0.0268485 -0.00130516 0
0.0268688 -0.000796683 0
0.0269108 -0.000342916 0
0.0269742 -2.43206e-05 0
0.00759199 -0.0407779 0
0.00434816 -0.037592 0
0.0159151 -0.0308116 0
0.0332039 -0.0144985 0
0.0293111 -0.0136161 0
0.0263926 -0.0144981 0
0.0253156 -0.0128561 0
0.0251698 -0.0107845 0
0.0253349 -0.00903975 0
0.0255617 -0.00765798 0
0.0257655 -0.00651019 0
0.025912 -0.00550296 0
0.0260117 -0.00458245 0
0.0260727 -0.0037163 0
0.0261112 -0.00288324 0
0.0261492 -0.00207855 0
0.0262197 -0.00131627 0
0.026372 -0.000649919 0
0.0266806 -0.000181618 0
0.00376492 -0.0398867 0
0.00125512 -0.0384581 0
0.00882421 -0.0374252 0
0.0254146 -0.0366743 0
0.0268888 -0.0275869 0
0.0236192 -0.0206486 0
0.022742 -0.0162907 0
0.0230185 -0.0131412 0
0.0235804 -0.0108275 0
0.0241177 -0.00906579 0
0.0245428 -0.00765065 0
0.0248416 -0.00643995 0
0.0250329 -0.00535351 0
0.0251468 -0.00434382 0
0.0252179 -0.00338226 0
0.0252914 -0.00245971 0
0.0254282 -0.00159279 0
0.0257218 -0.000830452 0
0.0262944 -0.00026548 0
0.000969471 -0.0389162 0
0.000186741 -0.0387044 0
0.00999754 -0.0396368 0
0.0211477 -0.0412995 0
0.0172252 -0.031364 0
0.0176631 -0.023307 0
0.018907 -0.0178677 0
0.0202882 -0.0141527 0
0.0215101 -0.0115363 0
0.0224756 -0.00958394 0
0.023179 -0.00803814 0
0.0236604 -0.0067381 0
0.0239661 -0.0055895 0
0.0241474 -0.00453445 0
0.0242611 -0.00353778 0
0.0243757 -0.0025868 0
0.0245832 -0.00169359 0
0.0250168 -0.000900228 0
0.0258489 -0.000296383 0
-0.00323789 -0.0463683 0
-0.00040836 -0.0433539 0
0.00868179 -0.0391817 0
0.0173991 -0.0325633 0
0.0101763 -0.02613 0
0.0123284 -0.0217556 0
0.0151312 -0.0175244 0
0.0175035 -0.0141099 0
0.0193627 -0.0115335 0
0.0207536 -0.00955828 0
0.021753 -0.00798242 0
0.0224353 -0.00666607 0
0.0228716 -0.00551626 0
0.0231333 -0.00447054 0
0.0232976 -0.00349014 0
0.0234569 -0.0025586 0
0.0237338 -0.00168417 0
0.0243013 -0.000902018 0
0.0253869 -0.000299651 0
-0.0104745 -0.053459 0
-0.00677228 -0.0459221 0
0.00154481 -0.0369461 0
0.0111714 -0.0270617 0
0.00773861 -0.0222515 0
0.00933762 -0.0196541 0
0.0122007 -0.0164853 0
0.0149745 -0.013528 0
0.0172708 -0.0111304 0
0.0190352 -0.00921961 0
0.0203221 -0.00767259 0
0.0212118 -0.0063838 0
0.0217883 -0.00526865 0
0.0221393 -0.00426374 0
0.02236 -0.00332777 0
0.0225651 -0.0024419 0
0.0229058 -0.00161123 0
0.023596 -0.000868185 0
0.0249295 -0.000290303 0
-0.0212875 -0.0543047 0
-0.018127 -0.0445893 0
-0.00788184 -0.0352513 0
0.00496226 -0.0281028 0
0.00602209 -0.0229188 0
0.00717367 -0.0192081 0
0.00974543 -0.0157638 0
0.0126544 -0.0128576 0
0.0152649 -0.0105545 0
0.0173593 -0.00871699 0
0.0189231 -0.00722464 0
0.0200212 -0.00598767 0
0.0207434 -0.00492724 0
0.0211889 -0.00398013 0
0.0214699 -0.00310368 0
0.021721 -0.00227808 0
0.0221214 -0.00150667 0
0.0229277 -0.000815119 0
0.0244944 -0.000273465 0
-0.0318778 -0.0488866 0
-0.0282889 -0.0424446 0
-0.0158085 -0.0361551 0
0.000647163 -0.0316483 0
0.00228994 -0.0248774 0
0.00413922 -0.0195238 0
0.00709276 -0.015338 0
0.010345 -0.0122266 0
0.0133096 -0.00991594 0
0.0157356 -0.0081317 0
0.017576 -0.006705 0
0.0188847 -0.00553306 0
0.0197559 -0.00453897 0
0.0202993 -0.00365903 0
0.0206421 -0.00284943 0
0.0209384 -0.00209158 0
0.0213943 -0.00138718 0
0.0223053 -0.000754254 0
0.0240874 -0.000253947 0
-0.0399732 -0.0433937 0
-0.0347069 -0.0402394 0
-0.021127 -0.0359643 0
-0.00345627 -0.0318337 0
-0.00292539 -0.0246644 0
0.00017356 -0.0190632 0
0.00408574 -0.0146727 0
0.00796941 -0.0115053 0
0.01139 -0.0092193 0
0.0141727 -0.00749857 0
0.0162951 -0.00614787 0
0.0178165 -0.00505097 0
0.0188384 -0.0041306 0
0.0194822 -0.00332218 0
0.0198881 -0.00258379 0
0.0202277 -0.00189623 0
0.0207346 -0.00126103 0
0.0217421 -0.000690225 0
0.0237202 -0.000232981 0
-0.0462915 -0.0399071 0
-0.0393385 -0.0376805 0
-0.0252511 -0.0336148 0
-0.00793467 -0.0286835 0
-0.00775829 -0.0222688 0
-0.00371656 -0.0174882 0
0.00109692 -0.0135326 0
0.00563998 -0.0105926 0
0.00954249 -0.00844582 0
0.0126913 -0.00682757 0
0.0150945 -0.00556893 0
0.0168271 -0.00455721 0
0.0179996 -0.00371574 0
0.0187434 -0.00298167 0
0.0192115 -0.00231661 0
0.0195921 -0.00170074 0
0.0201435 -0.00113321 0
0.021236 -0.000624916 0
0.0233878 -0.000212146 0
-0.0523905 -0.0383721 0
-0.0445598 -0.0348069 0
-0.0296693 -0.0301051 0
-0.0126075 -0.0247275 0
-0.0114714 -0.0193637 0
-0.00692405 -0.0154492 0
-0.00156009 -0.0121072 0
0.00349248 -0.00953652 0
0.00782427 -0.00760341 0
0.0113177 -0.00612636 0
0.01399 -0.00497649 0
0.0159262 -0.00405911 0
0.0172439 -0.00330073 0
0.0180847 -0.00264363 0
0.018612 -0.00205288 0
0.0190307 -0.00150827 0
0.0196218 -0.00100608 0
0.0207899 -0.000556597 0
0.0231006 -0.000190684 0
-0.0588606 -0.0353675 0
-0.0509042 -0.0312849 0
-0.0347035 -0.0263704 0
-0.0167713 -0.0213866 0
-0.0144114 -0.0169223 0
-0.00954145 -0.0135484 0
-0.00385832 -0.0106662 0
0.00157211 -0.00842856 0
0.0062673 -0.00672152 0
0.0100713 -0.0054047 0
0.0129924 -0.00437611 0
0.0151181 -0.00355979 0
0.0165728 -0.00288836 0
0.0175043 -0.00231032 0
0.0180868 -0.00179434 0
0.0185398 -0.00131933 0
0.0191646 -0.000880267 0
0.0203958 -0.000487263 0
0.0228399 -0.000167472 0
-0.0653829 -0.03064 0
-0.0569162 -0.0273062 0
-0.0395703 -0.0232954 0
-0.0200471 -0.0191399 0
-0.0171245 -0.0149826 0
-0.0119124 -0.0118643 0
-0.00590777 -0.00929097 0
-0.00014153 -0.00731445 0
0.00487749 -0.00581879 0
0.00896191 -0.00466831 0
0.0121099 -0.00376941 0
0.0144099 -0.00305903 0
0.015988 -0.00247943 0
0.0170018 -0.00198171 0
0.0176342 -0.00153982 0
0.0181169 -0.00113389 0
0.0187694 -0.000757153 0
0.0200527 -0.000418502 0
0.0226116 -0.000143731 0
-0.0703979 -0.0247159 0
-0.0613826 -0.0229662 0
-0.0434595 -0.0202731 0
-0.0227623 -0.0169956 0
-0.0198109 -0.0130269 0
-0.0141855 -0.0101597 0
-0.00777618 -0.00790464 0
-0.00166077 -0.00617904 0
0.0036592 -0.00489386 0
0.00799642 -0.00391679 0
0.0113466 -0.00315619 0
0.0137989 -0.00255786 0
0.0154885 -0.00207165 0
0.0165762 -0.00165622 0
0.0172524 -0.00128815 0
0.0177607 -0.000949936 0
0.0184355 -0.000634944 0
0.0197615 -0.000351135 0
0.0224165 -0.000120994 0
-0.0739044 -0.0194414 0
-0.0643949 -0.0187192 0
-0.0461815 -0.0170811 0
-0.0252286 -0.0142329 0
-0.0221973 -0.0107099 0
-0.016194 -0.00828522 0
-0.00940237 -0.00642135 0
-0.00295928 -0.00499729 0
0.002628 -0.00394187 0
0.00718469 -0.00314866 0
0.0107096 -0.00253552 0
0.013294 -0.00205363 0
0.0150778 -0.00166414 0
0.0162282 -0.00133161 0
0.0169416 -0.00103707 0
0.0174709 -0.000766764 0
0.0181627 -0.000513115 0
0.0195224 -0.000283268 0
0.022257 -9.89749e-05 0
-0.0767707 -0.0151319 0
-0.0668277 -0.0146249 0
-0.048177 -0.0134095 0
-0.0273404 -0.0109891 0
-0.02402 -0.0081693 0
-0.017751 -0.00628344 0
-0.0106899 -0.00486068 0
-0.00399968 -0.00377262 0
0.00180088 -0.00296586 0
0.0065356 -0.00236518 0
0.0102039 -0.00190725 0
0.0128969 -0.00154742 0
0.014759 -0.00125559 0
0.0159595 -0.00100648 0
0.0167026 -0.000785763 0
0.0172473 -0.000582024 0
0.0179521 -0.000390577 0
0.0193355 -0.000215735 0
0.0221306 -7.65211e-05 0
-0.0788959 -0.0106185 0
-0.068927 -0.010384 0
-0.0497264 -0.00956192 0
-0.028873 -0.00771915 0
-0.025263 -0.00563172 0
-0.0188461 -0.00427513 0
-0.0116234 -0.00327925 0
-0.00476795 -0.00253092 0
0.00118636 -0.00197765 0
0.00605458 -0.001573 0
0.00983159 -0.00127411 0
0.0126066 -0.00104058 0
0.0145265 -0.000846298 0
0.0157688 -0.000679192 0
0.0165364 -0.000532208 0
0.0170918 -0.000396749 0
0.0178022 -0.000267776 0
0.0192007 -0.000148501 0
0.0220377 -5.39618e-05 0
-0.0803045 -0.00608719 0
-0.0705212 -0.00617605 0
-0.050789 -0.00577626 0
-0.0296951 -0.00461201 0
-0.0260568 -0.00320527 0
-0.0195605 -0.00231249 0
-0.0122462 -0.00171145 0
-0.00527113 -0.00129165 0
0.000786225 -0.000990537 0
0.00574266 -0.000780156 0
0.00959447 -0.000640767 0
0.0124271 -0.000535388 0
0.0143899 -0.000436469 0
0.0156595 -0.000349727 0
0.0164421 -0.000277201 0
0.0170035 -0.000210575 0
0.0177159 -0.000144089 0
0.0191207 -8.11831e-05 0
0.0219804 -3.24612e-05 0
-0.0811673 -0.00168038 0
-0.0714696 -0.00218417 0
-0.0512765 -0.00239529 0
-0.030003 -0.00176194 0
-0.0264337 -0.000825101 0
-0.0198871 -0.000390058 0
-0.01251 -0.000171999 0
-0.0055005 -7.07197e-05 0
0.00060174 -1.825e-05 0
0.00559972 2.84965e-06 0
0.00949039 -1.21093e-05 0
0.0123571 -3.20098e-05 0
0.0143471 -2.73953e-05 0
0.0156318 -2.13089e-05 0
0.0164207 -2.28288e-05 0
0.0169815 -2.47574e-05 0
0.0176896 -2.22421e-05 0
0.0190915 -1.57657e-05 0
0.0219577 -9.67389e-06 0
-0.0811101 0.00290249 0
-0.0716145 0.00181044 0
-0.0511903 0.000873976 0
-0.0299741 0.00105539 0
-0.0263947 0.00151772 0
-0.0198259 0.00149005 0
-0.0124557 0.00131277 0
-0.00545892 0.00110615 0
0.000636998 0.000925676 0
0.00563061 0.000761908 0
0.00951343 0.000603418 0
0.0123911 0.000469915 0
0.014395 0.000379515 0
0.0156835 0.000303633 0
0.0164704 0.000228131 0
0.0170251 0.000158225 0
0.0177247 9.87339e-05 0
0.0191176 5.0621e-05 0
0.0219732 1.20081e-05 0
-0.0802991 0.00742101 0
-0.0708735 0.00571387 0
-0.0504407 0.0040746 0
-0.0295858 0.00377289 0
-0.0258919 0.00375281 0
-0.0193778 0.00327882 0
-0.0120852 0.00272863 0
-0.00514224 0.0022351 0
0.000902414 0.00182778 0
0.00585277 0.00148493 0
0.0097026 0.00118854 0
0.0125523 0.000969311 0
0.0145376 0.000780918 0
0.0158138 0.000619738 0
0.0165873 0.000472577 0
0.0171306 0.000336453 0
0.0178173 0.000216265 0
0.0191915 0.000115309 0
0.0220194 3.39531e-05 0
-0.078881 0.0118981 0
-0.0693039 0.00932058 0
-0.0491365 0.00706077 0
-0.0287658 0.00621521 0
-0.0249766 0.00576805 0
-0.018587 0.00492929 0
-0.011427 0.00407268 0
-0.00458292 0.0033179 0
0.00137868 0.00269117 0
0.00625826 0.00217477 0
0.010051 0.00175297 0
0.0128493 0.00143092 0
0.01478 0.00116032 0
0.0160199 0.000921552 0
0.0167693 0.000705461 0
0.017294 0.000507891 0
0.0179628 0.000329302 0
0.0193115 0.000177228 0
0.0220953 5.4604e-05 0
-0.0765823 0.0159135 0
-0.0670549 0.0126841 0
-0.0474596 0.0101158 0
-0.0274503 0.00858669 0
-0.0237453 0.00766743 0
-0.0174854 0.00648588 0
-0.0104793 0.00534683 0
-0.00378846 0.00435065 0
0.00204422 0.00351753 0
0.00681766 0.00283508 0
0.0105237 0.00228873 0
0.0132439 0.00185912 0
0.0151121 0.00150555 0
0.0162989 0.00119971 0
0.017013 0.000923574 0
0.0175137 0.000669312 0
0.0181608 0.000437094 0
0.019478 0.000235716 0
0.0222029 7.54469e-05 0
-0.0737527 0.0195181 0
-0.0645608 0.0161074 0
-0.0456675 0.0134877 0
-0.0256325 0.0112824 0
-0.0221359 0.00963724 0
-0.0160711 0.00800507 0
-0.00927303 0.00656061 0
-0.00278026 0.00532965 0
0.00288164 0.00430392 0
0.00751308 0.00346438 0
0.0111017 0.00279346 0
0.0137245 0.00225697 0
0.0155143 0.00182221 0
0.0166435 0.00145378 0
0.0173165 0.00112435 0
0.0177892 0.000821271 0
0.018412 0.000540436 0
0.0196926 0.000292544 0
0.022344 9.45657e-05 0
-0.070402 0.0232826 0
-0.0617689 0.0196414 0
-0.0435082 0.016643 0
-0.0230681 0.0138461 0
-0.0200071 0.0115167 0
-0.0143086 0.00944002 0
-0.00781803 0.00770745 0
-0.00157833 0.00625721 0
0.00387303 0.00505157 0
0.00833031 0.00406414 0
0.0117749 0.00327012 0
0.014281 0.00262915 0
0.0159832 0.00211669 0
0.0170483 0.00168792 0
0.0176758 0.00131036 0
0.0181169 0.000962972 0
0.0187104 0.000637244 0
0.0199458 0.000345723 0
0.02251 0.000113061 0
-0.0665921 0.0274082 0
-0.0582309 0.0229282 0
-0.0403555 0.0187752 0
-0.0198381 0.0155638 0
-0.0174213 0.0130119 0
-0.0122604 0.0106918 0
-0.00615512 0.00877044 0
-0.000209044 0.0071392 0
0.00500182 0.00576908 0
0.00925735 0.00464089 0
0.012535 0.00372646 0
0.0149092 0.00298548 0
0.0165115 0.00239601 0
0.0175045 0.00190792 0
0.0180833 0.00148391 0
0.0184907 0.00109595 0
0.0190532 0.000728182 0
0.020238 0.000396689 0
0.022703 0.000129726 0
-0.0615939 0.0317929 0
-0.0534253 0.0256733 0
-0.0358783 0.0203011 0
-0.0167001 0.0166268 0
-0.0147589 0.0141209 0
-0.0100907 0.0117956 0
-0.00434436 0.00978241 0
0.00130551 0.00799839 0
0.00625572 0.00647111 0
0.0102842 0.00520501 0
0.0133715 0.00417235 0
0.0155965 0.00333548 0
0.0170872 0.00266817 0
0.0180028 0.0021221 0
0.0185321 0.00165251 0
0.0189058 0.00122324 0
0.0194347 0.000814086 0
0.0205654 0.000444559 0
0.0229183 0.000146175 0
-0.0550546 0.0352875 0
-0.047447 0.0283107 0
-0.0308536 0.0225432 0
-0.0135384 0.0179927 0
-0.0121907 0.0153393 0
-0.00785351 0.012983 0
-0.00238621 0.0108359 0
0.00297327 0.00887107 0
0.00763768 0.00717337 0
0.0114073 0.00576466 0
0.0142781 0.00461646 0
0.0163343 0.00368585 0
0.0177027 0.00294338 0
0.0185375 0.00234023 0
0.0190162 0.00182303 0
0.0193564 0.00135022 0
0.0198528 0.000899625 0
0.020925 0.000491448 0
0.0231555 0.000161875 0
-0.0477608 0.0370022 0
-0.0417162 0.0309512 0
-0.0259573 0.0259389 0
-0.00968499 0.0205541 0
-0.00943226 0.0172736 0
-0.00534242 0.0144779 0
-0.000166424 0.0119959 0
0.00484376 0.00976971 0
0.0091626 0.00787585 0
0.0126282 0.00632139 0
0.0152517 0.00506341 0
0.0171204 0.00404422 0
0.0183572 0.00323126 0
0.0191065 0.00257032 0
0.0195334 0.0020028 0
0.0198414 0.00148297 0
0.0203041 0.000986789 0
0.0213138 0.000538269 0
0.0234114 0.00017857 0
-0.0414768 0.0377476 0
-0.037231 0.0333598 0
-0.0213004 0.0296891 0
-0.00505361 0.0243752 0
-0.00582663 0.0199588 0
-0.00217538 0.01619 0
0.00247826 0.0131654 0
0.00696827 0.0106362 0
0.0108419 0.00855183 0
0.0139478 0.00686673 0
0.0162924 0.00551211 0
0.0179554 0.00441655 0
0.0190524 0.00353841 0
0.0197125 0.0028189 0
0.020087 0.00219727 0
0.0203632 0.00162603 0
0.0207931 0.00108058 0
0.021736 0.000589104 0
0.0236887 0.00019457 0
-0.0362882 0.0399239 0
-0.0330824 0.0355255 0
-0.0172129 0.0316909 0
-0.000300204 0.0274166 0
-0.0010087 0.0221448 0
0.00178106 0.0175085 0
0.00554565 0.0140681 0
0.00932325 0.011353 0
0.0126577 0.00915649 0
0.0153576 0.00738467 0
0.0173988 0.00595804 0
0.0188436 0.00480268 0
0.0197934 0.00386624 0
0.0203615 0.00308829 0
0.0206836 0.00240965 0
0.0209287 0.00178248 0
0.0213243 0.0011827 0
0.0221948 0.000641063 0
0.0239891 0.000211538 0
-0.0295944 0.0444199 0
-0.0272131 0.037302 0
-0.012906 0.0312499 0
0.00360801 0.0274901 0
0.00438573 0.0221268 0
0.00601484 0.0177048 0
0.00873403 0.0144658 0
0.0117709 0.0118408 0
0.0145571 0.0096586 0
0.0168413 0.00786092 0
0.0185707 0.00639374 0
0.0197916 0.00519593 0
0.020589 0.00420916 0
0.0210632 0.00337545 0
0.0213329 0.00263833 0
0.0215469 0.00195168 0
0.0219072 0.00129412 0
0.0227016 0.000699358 0
0.0243256 0.000229946 0
-0.019534 0.0494932 0
-0.0181628 0.0396551 0
-0.00622511 0.0306557 0
0.0075645 0.0237572 0
0.00876331 0.0195196 0
0.00951466 0.0168649 0
0.0116157 0.0144733 0
0.0141496 0.0121591 0
0.0164866 0.0100702 0
0.0183855 0.00828745 0
0.0198089 0.00680564 0
0.0208046 0.00557938 0
0.0214477 0.00455197 0
0.021827 0.00366807 0
0.0220436 0.002874 0
0.0222254 0.00212769 0
0.0225472 0.00141165 0
0.0232571 0.000762045 0
0.0246912 0.000250937 0
-0.00826434 0.0491558 0
-0.00783966 0.0406205 0
0.00325037 0.0308834 0
0.0120123 0.0200732 0
0.0104854 0.0175919 0
0.0117043 0.016512 0
0.0140917 0.0146354 0
0.0164628 0.0124658 0
0.0184489 0.0104166 0
0.0199853 0.00864423 0
0.0211063 0.00716168 0
0.0218771 0.00592176 0
0.0223684 0.00486655 0
0.0226544 0.00394177 0
0.0228181 0.00309693 0
0.0229657 0.00229566 0
0.0232439 0.00152558 0
0.0238591 0.000824687 0
0.0250877 0.000271138 0
-0.000469847 0.041397 0
0.000359926 0.0388253 0
0.0126998 0.0327799 0
0.0167146 0.0244965 0
0.0113368 0.0210875 0
0.0140224 0.0180922 0
0.0168201 0.0152716 0
0.0189199 0.0127577 0
0.0204791 0.0106334 0
0.0216231 0.00886209 0
0.0224383 0.00739889 0
0.0229906 0.00616832 0
0.0233379 0.00510558 0
0.0235369 0.00415538 0
0.0236507 0.00327267 0
0.0237626 0.0024284 0
0.0239911 0.00161622 0
0.0245026 0.00087478 0
0.0255084 0.000287338 0
0.00145301 0.0332695 0
0.00447775 0.0342146 0
0.0156136 0.0335524 0
0.0193113 0.0350013 0
0.0164953 0.0272728 0
0.0187791 0.0198884 0
0.0204111 0.0155266 0
0.0215977 0.0126431 0
0.0225255 0.0105094 0
0.0232384 0.00880489 0
0.023757 0.00741083 0
0.0241096 0.00622847 0
0.0243296 0.00518968 0
0.0244536 0.00424119 0
0.0245237 0.00334439 0
0.0245989 0.00248013 0
0.0247702 0.00165063 0
0.0251646 0.000891981 0
0.0259395 0.000290082 0
0.00218346 0.0349308 0
0.00865433 0.0317003 0
0.0136517 0.0306203 0
0.019654 0.0320602 0
0.0262881 0.0237593 0
0.0248747 0.017522 0
0.024089 0.0139602 0
0.0240953 0.0115759 0
0.0243936 0.00975178 0
0.0247238 0.00826676 0
0.0249947 0.00702399 0
0.025184 0.0059492 0
0.0253009 0.00498606 0
0.0253672 0.00408765 0
0.0254034 0.00322067 0
0.0254439 0.00237829 0
0.0255522 0.00157385 0
0.0258231 0.000842545 0
0.0263629 0.000267378 0
0.00861688 0.0373368 0
0.0138339 0.0298916 0
0.0191212 0.0231005 0
0.0244362 0.00798397 0
0.0299417 0.00906217 0
0.0275122 0.0108988 0
0.0262477 0.0104414 0
0.0258721 0.00928897 0
0.0258624 0.00806219 0
0.0259599 0.00694664 0
0.0260683 0.00596079 0
0.0261444 0.00507944 0
0.0261888 0.00427823 0
0.0262139 0.00351491 0
0.0262281 0.00276082 0
0.0262431 0.00201891 0
0.0262937 0.0013143 0
0.0264366 0.000680195 0
0.0267436 0.000191619 0