<?xml version="1.0"?>
<VTKFile type="UnstructuredGrid">
  <UnstructuredGrid>
  <Piece NumberOfPoints="5412"  NumberOfCells="2638">
    <Points>
      <DataArray type="Float64" NumberOfComponents="3" format="ascii">
8.5 7.5 0.1
9 8 0.1
8.5 8.5 0.1
8 8 0.1
8.5 6 0.1
10.5 8 0.1
8.5 10 0.1
6.5 8 0.1
8.5 5 0.1
11.5 8 0.1
8.5 11 0.1
5.5 8 0.1
8.53923 7.50154 0.1
8.57822 7.50616 0.1
8.61672 7.51382 0.1
8.65451 7.52447 0.1
8.69134 7.53806 0.1
8.727 7.5545 0.1
8.76125 7.57368 0.1
8.79389 7.59549 0.1
8.82472 7.6198 0.1
8.85355 7.64645 0.1
8.8802 7.67528 0.1
8.90451 7.70611 0.1
8.92632 7.73875 0.1
8.9455 7.773 0.1
8.96194 7.80866 0.1
8.97553 7.84549 0.1
8.98618 7.88328 0.1
8.99384 7.92178 0.1
8.99846 7.96077 0.1
8.51963 7.50039 0.1
8.55877 7.50347 0.1
8.59755 7.50961 0.1
8.63572 7.51877 0.1
8.67306 7.5309 0.1
8.70933 7.54593 0.1
8.74431 7.56375 0.1
8.77779 7.58427 0.1
8.80955 7.60734 0.1
8.8394 7.63284 0.1
8.86716 7.6606 0.1
8.89266 7.69045 0.1
8.91573 7.72221 0.1
8.93625 7.75569 0.1
8.95407 7.79067 0.1
8.9691 7.82694 0.1
8.98123 7.86428 0.1
8.99039 7.90245 0.1
8.99653 7.94123 0.1
8.99961 7.98037 0.1
8.99846 8.03923 0.1
8.99384 8.07822 0.1
8.98618 8.11672 0.1
8.97553 8.15451 0.1
8.96194 8.19134 0.1
8.9455 8.227 0.1
8.92632 8.26125 0.1
8.90451 8.29389 0.1
8.8802 8.32472 0.1
8.85355 8.35355 0.1
8.82472 8.3802 0.1
8.79389 8.40451 0.1
8.76125 8.42632 0.1
8.727 8.4455 0.1
8.69134 8.46194 0.1
8.65451 8.47553 0.1
8.61672 8.48618 0.1
8.57822 8.49384 0.1
8.53923 8.49846 0.1
8.99961 8.01963 0.1
8.99653 8.05877 0.1
8.99039 8.09755 0.1
8.98123 8.13572 0.1
8.9691 8.17306 0.1
8.95407 8.20933 0.1
8.93625 8.24431 0.1
8.91573 8.27779 0.1
8.89266 8.30955 0.1
8.86716 8.3394 0.1
8.8394 8.36716 0.1
8.80955 8.39266 0.1
8.77779 8.41573 0.1
8.74431 8.43625 0.1
8.70933 8.45407 0.1
8.67306 8.4691 0.1
8.63572 8.48123 0.1
8.59755 8.49039 0.1
8.55877 8.49653 0.1
8.51963 8.49961 0.1
8.46077 8.49846 0.1
8.42178 8.49384 0.1
8.38328 8.48618 0.1
8.34549 8.47553 0.1
8.30866 8.46194 0.1
8.273 8.4455 0.1
8.23875 8.42632 0.1
8.20611 8.40451 0.1
8.17528 8.3802 0.1
8.14645 8.35355 0.1
8.1198 8.32472 0.1
8.09549 8.29389 0.1
8.07368 8.26125 0.1
8.0545 8.227 0.1
8.03806 8.19134 0.1
8.02447 8.15451 0.1
8.01382 8.11672 0.1
8.00616 8.07822 0.1
8.00154 8.03923 0.1
8.48037 8.49961 0.1
8.44123 8.49653 0.1
8.40245 8.49039 0.1
8.36428 8.48123 0.1
8.32694 8.4691 0.1
8.29067 8.45407 0.1
8.25569 8.43625 0.1
8.22221 8.41573 0.1
8.19045 8.39266 0.1
8.1606 8.36716 0.1
8.13284 8.3394 0.1
8.10734 8.30955 0.1
8.08427 8.27779 0.1
8.06375 8.24431 0.1
8.04593 8.20933 0.1
8.0309 8.17306 0.1
8.01877 8.13572 0.1
8.00961 8.09755 0.1
8.00347 8.05877 0.1
8.00039 8.01963 0.1
8.00154 7.96077 0.1
8.00616 7.92178 0.1
8.01382 7.88328 0.1
8.02447 7.84549 0.1
8.03806 7.80866 0.1
8.0545 7.773 0.1
8.07368 7.73875 0.1
8.09549 7.70611 0.1
8.1198 7.67528 0.1
8.14645 7.64645 0.1
8.17528 7.6198 0.1
8.20611 7.59549 0.1
8.23875 7.57368 0.1
8.273 7.5545 0.1
8.30866 7.53806 0.1
8.34549 7.52447 0.1
8.38328 7.51382 0.1
8.42178 7.50616 0.1
8.46077 7.50154 0.1
8.00039 7.98037 0.1
8.00347 7.94123 0.1
8.00961 7.90245 0.1
8.01877 7.86428 0.1
8.0309 7.82694 0.1
8.04593 7.79067 0.1
8.06375 7.75569 0.1
8.08427 7.72221 0.1
8.10734 7.69045 0.1
8.13284 7.6606 0.1
8.1606 7.63284 0.1
8.19045 7.60734 0.1
8.22221 7.58427 0.1
8.25569 7.56375 0.1
8.29067 7.54593 0.1
8.32694 7.5309 0.1
8.36428 7.51877 0.1
8.40245 7.50961 0.1
8.44123 7.50347 0.1
8.48037 7.50039 0.1
8.72393 6.01258 0.1
8.94504 6.05014 0.1
9.16056 6.11223 0.1
9.36777 6.19806 0.1
9.56406 6.30655 0.1
9.74698 6.43634 0.1
9.91421 6.58579 0.1
10.0637 6.75302 0.1
10.1934 6.93594 0.1
10.3019 7.13223 0.1
10.3878 7.33944 0.1
10.4499 7.55496 0.1
10.4874 7.77607 0.1
8.61214 6.00315 0.1
8.83501 6.02826 0.1
9.05367 6.07817 0.1
9.26537 6.15224 0.1
9.46744 6.24955 0.1
9.65734 6.36888 0.1
9.83269 6.50872 0.1
9.99128 6.66731 0.1
10.1311 6.84266 0.1
10.2504 7.03256 0.1
10.3478 7.23463 0.1
10.4218 7.44633 0.1
10.4717 7.66499 0.1
10.4969 7.88786 0.1
10.4874 8.22393 0.1
10.4499 8.44504 0.1
10.3878 8.66056 0.1
10.3019 8.86777 0.1
10.1934 9.06406 0.1
10.0637 9.24698 0.1
9.91421 9.41421 0.1
9.74698 9.56366 0.1
9.56406 9.69345 0.1
9.36777 9.80194 0.1
9.16056 9.88777 0.1
8.94504 9.94986 0.1
8.72393 9.98742 0.1
10.4969 8.11214 0.1
10.4717 8.33501 0.1
10.4218 8.55367 0.1
10.3478 8.76537 0.1
10.2504 8.96744 0.1
10.1311 9.15734 0.1
9.99128 9.33269 0.1
9.83269 9.49128 0.1
9.65734 9.63112 0.1
9.46744 9.75045 0.1
9.26537 9.84776 0.1
9.05367 9.92183 0.1
8.83501 9.97174 0.1
8.61214 9.99685 0.1
8.27607 9.98742 0.1
8.05496 9.94986 0.1
7.83944 9.88777 0.1
7.63223 9.80194 0.1
7.43594 9.69345 0.1
7.25302 9.56366 0.1
7.08579 9.41421 0.1
6.93634 9.24698 0.1
6.80655 9.06406 0.1
6.69806 8.86777 0.1
6.61223 8.66056 0.1
6.55014 8.44504 0.1
6.51258 8.22393 0.1
8.38786 9.99685 0.1
8.16499 9.97174 0.1
7.94633 9.92183 0.1
7.73463 9.84776 0.1
7.53256 9.75045 0.1
7.34266 9.63112 0.1
7.16731 9.49128 0.1
7.00872 9.33269 0.1
6.86888 9.15734 0.1
6.74955 8.96744 0.1
6.65224 8.76537 0.1
6.57817 8.55367 0.1
6.52826 8.33501 0.1
6.50315 8.11214 0.1
6.51258 7.77607 0.1
6.55014 7.55496 0.1
6.61223 7.33944 0.1
6.69806 7.13223 0.1
6.80655 6.93594 0.1
6.93634 6.75302 0.1
7.08579 6.58579 0.1
7.25302 6.43634 0.1
7.43594 6.30655 0.1
7.63223 6.19806 0.1
7.83944 6.11223 0.1
8.05496 6.05014 0.1
8.27607 6.01258 0.1
6.50315 7.88786 0.1
6.52826 7.66499 0.1
6.57817 7.44633 0.1
6.65224 7.23463 0.1
6.74955 7.03256 0.1
6.86888 6.84266 0.1
7.00872 6.66731 0.1
7.16731 6.50872 0.1
7.34266 6.36888 0.1
7.53256 6.24955 0.1
7.73463 6.15224 0.1
7.94633 6.07817 0.1
8.16499 6.02826 0.1
8.38786 6.00315 0.1
8.83589 5.01886 0.1
9.16756 5.07522 0.1
9.49084 5.16835 0.1
9.80165 5.29709 0.1
10.0961 5.45983 0.1
10.3705 5.65451 0.1
10.6213 5.87868 0.1
10.8455 6.12953 0.1
11.0402 6.4039 0.1
11.2029 6.69835 0.1
11.3316 7.00916 0.1
11.4248 7.33244 0.1
11.4811 7.66411 0.1
8.66821 5.00472 0.1
9.00252 5.04239 0.1
9.33051 5.11725 0.1
9.64805 5.22836 0.1
9.95116 5.37433 0.1
10.236 5.55332 0.1
10.499 5.76307 0.1
10.7369 6.00096 0.1
10.9467 6.26399 0.1
11.1257 6.54884 0.1
11.2716 6.85195 0.1
11.3828 7.16949 0.1
11.4576 7.49748 0.1
11.4953 7.83179 0.1
11.4811 8.33589 0.1
11.4248 8.66756 0.1
11.3316 8.99084 0.1
11.2029 9.30165 0.1
11.0402 9.5961 0.1
10.8455 9.87047 0.1
10.6213 10.1213 0.1
10.3705 10.3455 0.1
10.0961 10.5402 0.1
9.80165 10.7029 0.1
9.49084 10.8316 0.1
9.16756 10.9248 0.1
8.83589 10.9811 0.1
11.4953 8.16821 0.1
11.4576 8.50252 0.1
11.3828 8.83051 0.1
11.2716 9.14805 0.1
11.1257 9.45116 0.1
10.9467 9.73601 0.1
10.7369 9.99904 0.1
10.499 10.2369 0.1
10.236 10.4467 0.1
9.95116 10.6257 0.1
9.64805 10.7716 0.1
9.33051 10.8828 0.1
9.00252 10.9576 0.1
8.66821 10.9953 0.1
8.16411 10.9811 0.1
7.83244 10.9248 0.1
7.50916 10.8316 0.1
7.19835 10.7029 0.1
6.9039 10.5402 0.1
6.62953 10.3455 0.1
6.37868 10.1213 0.1
6.15451 9.87047 0.1
5.95983 9.5961 0.1
5.79709 9.30165 0.1
5.66835 8.99084 0.1
5.57522 8.66756 0.1
5.51886 8.33589 0.1
8.33179 10.9953 0.1
7.99748 10.9576 0.1
7.66949 10.8828 0.1
7.35195 10.7716 0.1
7.04884 10.6257 0.1
6.76399 10.4467 0.1
6.50096 10.2369 0.1
6.26307 9.99904 0.1
6.05332 9.73601 0.1
5.87433 9.45116 0.1
5.72836 9.14805 0.1
5.61725 8.83051 0.1
5.54239 8.50252 0.1
5.50472 8.16821 0.1
5.51886 7.66411 0.1
5.57522 7.33244 0.1
5.66835 7.00916 0.1
5.79709 6.69835 0.1
5.95983 6.4039 0.1
6.15451 6.12953 0.1
6.37868 5.87868 0.1
6.62953 5.65451 0.1
6.9039 5.45983 0.1
7.19835 5.29709 0.1
7.50916 5.16835 0.1
7.83244 5.07522 0.1
8.16411 5.01886 0.1
5.50472 7.83179 0.1
5.54239 7.49748 0.1
5.61725 7.16949 0.1
5.72836 6.85195 0.1
5.87433 6.54884 0.1
6.05332 6.26399 0.1
6.26307 6.00096 0.1
6.50096 5.76307 0.1
6.76399 5.55332 0.1
7.04884 5.37433 0.1
7.35195 5.22836 0.1
7.66949 5.11725 0.1
7.99748 5.04239 0.1
8.33179 5.00472 0.1
8.5 6.1 0.1
8.5 6.2 0.1
8.5 6.3 0.1
8.5 6.4 0.1
8.5 6.5 0.1
8.5 6.6 0.1
8.5 6.7 0.1
8.5 6.8 0.1
8.5 6.9 0.1
8.5 7 0.1
8.5 7.1 0.1
8.5 7.2 0.1
8.5 7.3 0.1
8.5 7.4 0.1
8.5 6.05 0.1
8.5 6.15 0.1
8.5 6.25 0.1
8.5 6.35 0.1
8.5 6.45 0.1
8.5 6.55 0.1
8.5 6.65 0.1
8.5 6.75 0.1
8.5 6.85 0.1
8.5 6.95 0.1
8.5 7.05 0.1
8.5 7.15 0.1
8.5 7.25 0.1
8.5 7.35 0.1
8.5 7.45 0.1
9.1 8 0.1
9.2 8 0.1
9.3 8 0.1
9.4 8 0.1
9.5 8 0.1
9.6 8 0.1
9.7 8 0.1
9.8 8 0.1
9.9 8 0.1
10 8 0.1
10.1 8 0.1
10.2 8 0.1
10.3 8 0.1
10.4 8 0.1
9.05 8 0.1
9.15 8 0.1
9.25 8 0.1
9.35 8 0.1
9.45 8 0.1
9.55 8 0.1
9.65 8 0.1
9.75 8 0.1
9.85 8 0.1
9.95 8 0.1
10.05 8 0.1
10.15 8 0.1
10.25 8 0.1
10.35 8 0.1
10.45 8 0.1
8.5 8.6 0.1
8.5 8.7 0.1
8.5 8.8 0.1
8.5 8.9 0.1
8.5 9 0.1
8.5 9.1 0.1
8.5 9.2 0.1
8.5 9.3 0.1
8.5 9.4 0.1
8.5 9.5 0.1
8.5 9.6 0.1
8.5 9.7 0.1
8.5 9.8 0.1
8.5 9.9 0.1
8.5 8.55 0.1
8.5 8.65 0.1
8.5 8.75 0.1
8.5 8.85 0.1
8.5 8.95 0.1
8.5 9.05 0.1
8.5 9.15 0.1
8.5 9.25 0.1
8.5 9.35 0.1
8.5 9.45 0.1
8.5 9.55 0.1
8.5 9.65 0.1
8.5 9.75 0.1
8.5 9.85 0.1
8.5 9.95 0.1
6.6 8 0.1
6.7 8 0.1
6.8 8 0.1
6.9 8 0.1
7 8 0.1
7.1 8 0.1
7.2 8 0.1
7.3 8 0.1
7.4 8 0.1
7.5 8 0.1
7.6 8 0.1
7.7 8 0.1
7.8 8 0.1
7.9 8 0.1
6.55 8 0.1
6.65 8 0.1
6.75 8 0.1
6.85 8 0.1
6.95 8 0.1
7.05 8 0.1
7.15 8 0.1
7.25 8 0.1
7.35 8 0.1
7.45 8 0.1
7.55 8 0.1
7.65 8 0.1
7.75 8 0.1
7.85 8 0.1
7.95 8 0.1
8.5 5.33333 0.1
8.5 5.66667 0.1
8.5 5.16667 0.1
8.5 5.5 0.1
8.5 5.83333 0.1
10.8333 8 0.1
11.1667 8 0.1
10.6667 8 0.1
11 8 0.1
11.3333 8 0.1
8.5 10.3333 0.1
8.5 10.6667 0.1
8.5 10.1667 0.1
8.5 10.5 0.1
8.5 10.8333 0.1
5.83333 8 0.1
6.16667 8 0.1
5.66667 8 0.1
6 8 0.1
6.33333 8 0.1
9.42912 7.36778 0.1
8.98107 7.14335 0.1
9.12034 7.43554 0.1
9.01433 6.66213 0.1
9.17936 7.68419 0.1
9.85922 7.57796 0.1
8.76256 7.28829 0.1
9.38426 6.90812 0.1
8.92185 7.46489 0.1
9.02088 7.58931 0.1
9.52889 7.66584 0.1
8.77428 6.9572 0.1
9.79217 7.11621 0.1
9.14334 7.82286 0.1
9.23019 7.21456 0.1
8.76547 7.42416 0.1
8.78426 6.45 0.1
10.05 7.73427 0.1
9.02751 7.71032 0.1
9.75 7.78105 0.1
8.64858 7.43517 0.1
9.37911 7.79108 0.1
9.35145 7.59348 0.1
8.67575 6.75137 0.1
8.82688 7.51565 0.1
8.89755 7.56932 0.1
9.00894 6.90235 0.1
9.31754 6.58936 0.1
8.99619 7.31062 0.1
8.67317 7.1143 0.1
8.70809 6.25 0.1
10.2334 7.80568 0.1
9.45268 7.13775 0.1
[...]
    <PointData>
      <DataArray type="Float64" NumberOfComponents="3" Name="Velocity" format="ascii">
0 0 0
0 0 0
0 0 0
0 0 0
1.04747 0.00173857 0
0.940628 1.47658e-05 0
1.04825 -0.00217765 0
0.938696 2.7282e-05 0
1.03161 -0.000110149 0
0.973872 -7.60207e-07 0
1.03124 0.0001116 0
0.975475 -6.35963e-05 0
0 0 0
0 0 0
0 0 0
0 0 0
0 0 0
0 0 0
0 0 0
0 0 0
0 0 0
0 0 0
0 0 0
0 0 0
0 0 0
0 0 0
0 0 0
0 0 0
0 0 0
0 0 0
0 0 0
0 0 0
0 0 0
0 0 0
0 0 0
0 0 0
0 0 0
0 0 0
0 0 0
0 0 0
0 0 0
0 0 0
0 0 0
0 0 0
0 0 0
0 0 0
0 0 0
0 0 0
0 0 0
0 0 0
0 0 0
0 0 0
0 0 0
0 0 0
0 0 0
0 0 0
0 0 0
0 0 0
0 0 0
0 0 0
0 0 0
0 0 0
0 0 0
0 0 0
0 0 0
0 0 0
0 0 0
0 0 0
0 0 0
0 0 0
0 0 0
0 0 0
0 0 0
0 0 0
0 0 0
0 0 0
0 0 0
0 0 0
0 0 0
0 0 0
0 0 0
0 0 0
0 0 0
0 0 0
0 0 0
0 0 0
0 0 0
0 0 0
0 0 0
0 0 0
0 0 0
0 0 0
0 0 0
0 0 0
0 0 0
0 0 0
0 0 0
0 0 0
0 0 0
0 0 0
0 0 0
0 0 0
0 0 0
0 0 0
0 0 0
0 0 0
0 0 0
0 0 0
0 0 0
0 0 0
0 0 0
0 0 0
0 0 0
0 0 0
0 0 0
0 0 0
0 0 0
0 0 0
0 0 0
0 0 0
0 0 0
0 0 0
0 0 0
0 0 0
0 0 0
0 0 0
0 0 0
0 0 0
0 0 0
0 0 0
0 0 0
0 0 0
0 0 0
0 0 0
0 0 0
0 0 0
0 0 0
0 0 0
0 0 0
0 0 0
0 0 0
0 0 0
0 0 0
0 0 0
0 0 0
0 0 0
0 0 0
0 0 0
0 0 0
0 0 0
0 0 0
0 0 0
0 0 0
0 0 0
0 0 0
0 0 0
0 0 0
0 0 0
0 0 0
0 0 0
0 0 0
0 0 0
0 0 0
0 0 0
0 0 0
0 0 0
0 0 0
0 0 0
1.05282 0.0128196 0
1.05109 0.0244584 0
1.04808 0.0365215 0
1.04065 0.0488306 0
1.02884 0.0568022 0
1.01538 0.0618635 0
1.00209 0.0627961 0
0.991035 0.0594441 0
0.977084 0.0561679 0
0.962739 0.050836 0
0.951978 0.0420968 0
0.944684 0.0293232 0
0.941333 0.0145236 0
1.05095 0.00552847 0
1.05204 0.0191517 0
1.04964 0.0314756 0
1.04516 0.0433273 0
1.03526 0.0526588 0
1.02243 0.0594545 0
1.00942 0.062971 0
0.995891 0.0628501 0
0.982244 0.0595992 0
0.968456 0.0545136 0
0.956512 0.0470256 0
0.948221 0.0358164 0
0.942798 0.0220244 0
0.939966 0.00761271 0
0.941339 -0.0145461 0
0.944665 -0.0292503 0
0.951926 -0.0420004 0
0.962907 -0.0505897 0
0.977292 -0.0563903 0
0.990121 -0.059091 0
1.00339 -0.063771 0
1.0167 -0.0621354 0
1.02923 -0.0574382 0
1.04033 -0.0481304 0
1.04921 -0.0381235 0
1.05365 -0.0258821 0
1.05191 -0.0130727 0
0.939946 -0.00761621 0
0.942767 -0.0221066 0
0.948201 -0.0358739 0
0.95647 -0.0469858 0
0.968173 -0.0544991 0
0.982229 -0.0593444 0
0.996706 -0.0631771 0
1.01011 -0.0641166 0
1.02361 -0.0603966 0
1.03646 -0.0532415 0
1.04608 -0.0435238 0
1.05164 -0.0319333 0
1.05356 -0.0194379 0
1.05131 -0.00521959 0
1.04868 0.0121344 0
1.04561 0.0232475 0
1.03953 0.0347154 0
1.03023 0.0453764 0
1.01861 0.050742 0
1.00805 0.0514618 0
0.997849 0.0533141 0
0.984437 0.0573009 0
0.970858 0.0563892 0
0.959806 0.0482292 0
0.95201 0.036113 0
0.945355 0.0228898 0
0.940762 0.0112609 0
1.04893 0.0046715 0
1.04829 0.0168419 0
1.04291 0.0295874 0
1.03455 0.041309 0
1.0248 0.0493766 0
1.01315 0.051192 0
1.00303 0.0527831 0
0.9901 0.0564175 0
0.976757 0.0584175 0
0.964334 0.0531817 0
0.955625 0.0425092 0
0.948946 0.0294212 0
0.943054 0.0170017 0
0.939069 0.0058602 0
0.940868 -0.0111976 0
0.945518 -0.0228952 0
0.952037 -0.0361483 0
0.959766 -0.048064 0
0.970399 -0.0563209 0
0.984474 -0.0572506 0
0.997568 -0.0533662 0
1.00836 -0.0512655 0
1.01816 -0.0509066 0
1.02937 -0.0456923 0
1.03983 -0.0346285 0
1.04569 -0.0227031 0
1.04932 -0.0116941 0
0.939056 -0.00586513 0
0.942952 -0.0170531 0
0.948859 -0.0295407 0
0.955605 -0.0423625 0
0.964407 -0.0531932 0
0.976804 -0.0581461 0
0.99037 -0.0565991 0
1.00246 -0.0522722 0
1.01361 -0.0513645 0
1.02409 -0.0487821 0
1.03488 -0.0412687 0
1.04278 -0.0296716 0
1.0478 -0.0171222 0
1.04919 -0.00454425 0
1.03149 0.00619371 0
1.02868 0.0120482 0
1.02546 0.0174478 0
1.02104 0.0218097 0
1.01523 0.025313 0
1.00872 0.0276139 0
1.00291 0.028314 0
0.996926 0.0273666 0
0.990311 0.0255011 0
0.985201 0.0220038 0
0.980808 0.0176644 0
0.97677 0.0124122 0
0.974384 0.00664494 0
1.03167 0.00316104 0
1.03011 0.00890021 0
1.02725 0.0148036 0
1.02373 0.0197237 0
1.01845 0.0236788 0
1.01218 0.0265843 0
1.00588 0.0282032 0
1.00006 0.027924 0
0.9936 0.0265709 0
0.987513 0.0239196 0
0.983014 0.0198806 0
0.978627 0.0151009 0
0.975288 0.00968664 0
0.973917 0.00357527 0
0.974377 -0.00663726 0
0.976747 -0.0123857 0
0.980782 -0.0176189 0
0.985229 -0.0220328 0
0.99027 -0.0254332 0
0.996892 -0.0273079 0
1.00291 -0.0282947 0
1.00877 -0.0275723 0
1.01531 -0.0253157 0
1.02112 -0.0218527 0
1.02537 -0.017437 0
1.02859 -0.0121317 0
1.0312 -0.00614124 0
0.973909 -0.00355232 0
0.975312 -0.00966667 0
0.978658 -0.0150675 0
0.98314 -0.0198398 0
0.987607 -0.0238492 0
0.993596 -0.0265631 0
1.00005 -0.0279104 0
1.00579 -0.0281832 0
1.01212 -0.0266158 0
1.01839 -0.0237191 0
1.02352 -0.0197625 0
1.02742 -0.0148829 0
1.03002 -0.00914295 0
1.0314 -0.00308283 0
1.02981 0.00654348 0
1.02679 0.0125499 0
1.02403 0.0173254 0
1.0207 0.021657 0
1.01505 0.025653 0
1.0089 0.0276884 0
1.00308 0.0282172 0
0.996439 0.0272531 0
0.990542 0.0248544 0
0.985658 0.0235585 0
0.979998 0.0208149 0
0.97646 0.0149112 0
0.975795 0.00696788 0
1.03065 0.00364154 0
1.0282 0.00948764 0
1.02554 0.0150258 0
1.02287 0.0195127 0
1.01821 0.0238314 0
1.01193 0.0267834 0
1.00588 0.0279174 0
0.999839 0.0277061 0
0.993418 0.025774 0
0.988308 0.0240251 0
0.982988 0.0224716 0
0.977696 0.0181914 0
0.975975 0.0109706 0
0.975759 0.00335126 0
0.975747 -0.00706728 0
0.976321 -0.0149738 0
0.979952 -0.020847 0
0.985823 -0.0236753 0
0.990529 -0.0250254 0
0.996272 -0.0271441 0
1.00277 -0.0279607 0
1.0088 -0.0276652 0
1.01502 -0.0256233 0
1.02094 -0.0217491 0
1.02434 -0.017523 0
1.0266 -0.0124554 0
1.0299 -0.00670673 0
0.97575 -0.00338271 0
0.976012 -0.0110612 0
0.977833 -0.0182233 0
0.983243 -0.0223079 0
0.988431 -0.0240286 0
0.993434 -0.0258585 0
0.99976 -0.027643 0
1.00586 -0.0279069 0
1.01184 -0.0267627 0
1.01818 -0.0237906 0
1.02289 -0.0195027 0
1.0254 -0.0151563 0
1.02837 -0.00949712 0
1.03085 -0.00345707 0
1.08086 -0.00072685 0
1.08987 -0.00046585 0
1.09997 -0.000371757 0
1.11201 -0.000683647 0
1.12641 -0.000980517 0
1.14414 -0.00129312 0
1.16629 -0.00174876 0
1.19391 -0.00229483 0
1.22984 -0.00311948 0
1.27741 -0.00436716 0
1.34103 -0.00698106 0
1.42943 -0.0122036 0
1.57137 -0.029044 0
1.66228 -0.0121455 0
1.07864 0.000234978 0
1.08563 -5.09484e-05 0
1.09496 -0.000511355 0
1.10574 -0.000618098 0
1.11885 -0.000826025 0
1.13482 -0.00111416 0
1.15448 -0.00149844 0
1.17909 -0.00198104 0
1.21061 -0.00267804 0
1.25152 -0.003645 0
1.30607 -0.00527871 0
1.38232 -0.0085916 0
1.49004 -0.0133595 0
1.64966 -0.0424499 0
1.88277 -0.125661 0
0.245405 0.00054662 0
0.450244 -0.000295725 0
0.578441 6.89019e-05 0
0.669646 0.000200918 0
0.734608 3.12467e-05 0
0.781519 4.06773e-05 0
0.818133 0.000126732 0
0.846047 0.000112746 0
0.868412 3.46915e-05 0
0.886178 4.41075e-05 0
0.901066 3.20015e-05 0
0.913344 3.61321e-05 0
0.92359 2.38095e-05 0
0.932652 2.00055e-05 0
0.0926188 -0.000459191 0
0.360096 -0.00127071 0
0.520649 0.000335053 0
0.627776 0.000265143 0
0.704448 0.000127016 0
0.759731 0.000116224 0
0.800916 0.000104041 0
0.832909 6.27406e-05 0
0.857822 3.29283e-05 0
0.877758 4.19359e-05 0
0.893959 3.58633e-05 0
0.907447 3.6471e-05 0
0.918677 2.15136e-05 0
0.928315 2.24927e-05 0
0.936697 2.00668e-05 0
1.70137 0.0295542 0
1.58278 0.0312608 0
1.42923 0.011535 0
1.34106 0.00601357 0
1.27796 0.00470894 0
1.22994 0.0031474 0
1.19411 0.00224085 0
1.16651 0.00179549 0
1.14427 0.00134953 0
1.12647 0.000979034 0
1.11203 0.000697309 0
1.10012 0.000259018 0
1.08997 0.00031245 0
1.08089 0.000779281 0
1.87397 0.136785 0
1.63468 0.0217399 0
1.49051 0.0137899 0
1.38319 0.00806418 0
1.30545 0.0054212 0
1.25155 0.00376343 0
1.21067 0.00270822 0
1.17901 0.00203721 0
1.15446 0.00152829 0
1.13486 0.00114651 0
1.11889 0.000810941 0
1.10581 0.000565448 0
1.0949 0.000355445 0
1.08557 0.000139589 0
1.07821 -0.000263644 0
0.932578 -2.02053e-06 0
0.924643 -7.71142e-06 0
0.91476 -1.64683e-06 0
0.903089 -5.15852e-06 0
0.888612 -4.81889e-06 0
0.871247 -5.91275e-06 0
0.849483 -7.19282e-06 0
0.822716 -9.04807e-06 0
0.787629 -1.15363e-05 0
0.742614 -1.47013e-05 0
0.680386 -1.86316e-05 0
0.595725 -2.15744e-05 0
0.474885 3.19278e-06 0
0.277998 0.00011102 0
0.935782 7.94409e-06 0
0.928798 -4.19734e-06 0
0.919923 -2.77537e-06 0
0.909202 -5.11493e-06 0
0.896208 -5.47203e-06 0
0.88039 -5.45522e-06 0
0.861013 -6.37468e-06 0
0.836935 -8.01e-06 0
0.806356 -1.01549e-05 0
0.766712 -1.29898e-05 0
0.713911 -1.69851e-05 0
0.641487 -2.25602e-05 0
0.541086 -3.63165e-05 0
0.387631 -6.70133e-05 0
0.154741 -0.000278011 0
1.03987 -0.000667806 0
1.05602 -0.000875069 0
1.0342 -0.000377182 0
1.04645 -0.00082669 0
1.04647 -0.000664512 0
0.954276 1.55798e-05 0
0.965787 1.01394e-05 0
0.947619 1.39215e-05 0
0.96066 1.00029e-05 0
0.97012 9.24084e-06 0
1.05654 0.00146634 0
1.03953 0.000540763 0
1.04604 0.000672568 0
1.04658 0.000688226 0
1.03434 0.000201285 0
0.965999 -5.0723e-05 0
0.952653 1.36001e-05 0
0.971271 1.46263e-05 0
0.959401 1.17094e-05 0
0.945979 -1.13606e-05 0
0.929586 0.200168 0
1.15485 0.238628 0
0.973968 0.38318 0
1.10495 0.0872991 0
0.697214 0.375183 0
0.896544 0.0762018 0
1.37013 0.305788 0
1.03625 0.133652 0
1.13835 0.552459 0
0.876116 0.601458 0
0.819666 0.137356 0
1.21073 0.112593 0
0.967106 0.102756 0
0.478955 0.322766 0
1.02554 0.234395 0
1.36548 0.492732 0
1.10874 0.0376887 0
0.903316 0.0369498 0
0.617698 0.654388 0
0.848039 0.057922 0
1.92369 0.461052 0
0.708831 0.152344 0
0.816834 0.239572 0
1.17018 0.0451472 0
1.36134 0.759373 0
1.1195 0.797888 0
1.1266 0.140046 0
1.05771 0.0874879 0
1.12717 0.354064 0
1.31608 0.123124 0
1.09147 0.020168 0
0.920201 0.0201773 0
0.991745 0.163331 0
0.889977 0.137683 0
0.944515 0.0710169 0
1.00467 0.097113 0
0.867741 0.820588 0
1.26866 0.428771 0
0.925458 0.278066 0
1.07858 0.0558998 0
0.843933 0.417191 0
0.778156 0.0739824 0
1.08225 0.183183 0
0.946028 0.144178 0
0.249536 0.30201 0
0.411013 0.570568 0
0.931346 0.102082 0
1.54155 0.191085 0
1.25373 0.225249 0
1.07565 0.11606 0
0.562906 0.16451 0
1.69691 0.770561 0
1.14887 0.0965969 0
0.934105 0.0447326 0
1.13502 0.029065 0
0.881162 0.0342048 0
1.0365 0.29334 0
0.992525 0.506609 0
1.23676 0.0649094 0
0.876953 0.103356 0
1.18359 0.164757 0
1.26861 0.854828 0
1.11911 0.0194023 0
0.863802 0.168518 0
1.03371 0.17598 0
2.1244 0.191093 0
1.12945 0.0605618 0
1.03085 0.0958995 0
1.20215 0.297955 0
0.766622 0.505042 0
0.993045 0.117847 0
0.675352 0.824127 0
0.94251 0.86153 0
0.895094 0.0173981 0
0.738554 0.231751 0
0.788455 0.326091 0
0.535819 0.43329 0
1.10197 0.4551 0
1.07681 0.257833 0
0.986461 0.0803355 0
0.720302 0.066405 0
0.808132 0.0403633 0
0.967488 0.233199 0
0.777887 0.178203 0
0.966793 0.0820012 0
1.27746 0.499955 0
0.4683 0.71879 0
0.879157 0.0584149 0
1.09126 0.0383137 0
1.52767 0.813261 0
0.426055 0.195023 0
1.58289 0.620597 0
0.915409 0.0564619 0
1.20726 0.0312653 0
1.40291 0.104342 0
1.00056 0.624166 0
1.48923 0.362404 0
0.10917 0.216421 0
0.225651 0.47449 0
0.597069 0.282621 0
1.08023 0.00978216 0
0.929336 0.01138 0
1.29521 0.0542678 0
1.08116 0.0749647 0
1.05795 0.0618729 0
0.901678 0.348702 0
0.824939 0.0757848 0
1.06499 0.145248 0
1.0331 0.0752539 0
1.13591 0.183545 0
0.982107 0.795055 0
0.843933 0.0280604 0
1.1055 0.0596319 0
0.41708 0.608945 0
1.24408 0.155613 0
0.881742 0.224357 0
1.37577 0.20104 0
1.1548 0.0221441 0
0.979417 0.325241 0
0.908315 0.011461 0
1.10362 0.0117945 0
1.25211 0.380214 0
0.630117 0.0897561 0
0.760934 0.120902 0
0.899718 0.499428 0
1.65071 0.00357643 0
0.925591 0.0802912 0
1.43133 0.264071 0
0.967668 0.187301 0
0.981855 0.745165 0
0.653275 0.726232 0
1.05039 0.36953 0
0.736421 0.663222 0
1.1892 0.686639 0
1.19123 0.0708548 0
1.16133 0.126551 0
1.37806 0.416783 0
1.01895 0.115239 0
0.0525056 0.0691018 0
0.919287 0.00903768 0
1.09359 0.00842516 0
1.01482 0.0792499 0
1.58218 0.177445 0
1.4121 0.631143 0
0.919622 0.157421 0
1.10265 0.11215 0
0.949159 0.0907162 0
1.15341 0.739777 0
0.919996 0.0354581 0
0.240518 0.490282 0
1.08175 0.00631571 0
0.935699 0.00725625 0
0.85888 0.129598 0
1.26146 0.10293 0
0.878898 0.0146473 0
1.19845 0.482833 0
1.10291 0.0256464 0
0.997378 0.198514 0
1.13536 0.0134104 0
0.946989 0.055009 0
0.861722 0.281218 0
0.974326 0.135456 0
1.04864 0.11372 0
0.106085 0.276694 0
1.12464 0.284008 0
1.00931 0.138756 0
0.907238 0.104014 0
0.994154 0.271033 0
1.68315 0.561343 0
0.932423 0.0270515 0
1.27657 0.32499 0
1.00038 0.0789175 0
0.764657 0.0366053 0
0.909215 0.0245433 0
0.92389 0.126585 0
0.948386 0.116759 0
1.07111 0.0412283 0
0.983773 0.0978243 0
1.12807 0.541875 0
1.07852 0.0254565 0
0.64711 0.199977 0
0.863009 0.0201542 0
0.962342 0.0655506 0
0.530206 0.569936 0
1.31554 0.246556 0
0.932859 0.0616158 0
1.4841 0.0772288 0
1.17837 0.0188759 0
0.282475 0.158118 0
1.19121 0.386697 0
1.09655 0.148164 0
0.830108 0.191044 0
1.06446 0.213876 0
1.04576 0.0673685 0
0.926051 0.234388 0
0.896457 0.0529086 0
1.15512 0.0715472 0
0.931406 0.429884 0
1.14452 0.0455493 0
1.19539 0.210717 0
1.12876 0.0824002 0
1.23668 0.583468 0
0.894981 0.180196 0
0.528305 0.0814541 0
1.17448 0.0960703 0
1.01105 0.431063 0
1.12342 0.0433916 0
0.803383 0.102314 0
1.08596 0.094656 0
1.10579 0.225719 0
0.516807 0.242187 0
0.770828 0.409349 0
0.863725 0.0778905 0
1.45665 0.264441 0
1.35259 0.0503814 0
1.06201 0.557818 0
1.2936 0.185451 0
0.942815 0.557969 0
1.24859 0.0281436 0
1.19498 0.0831215 0
0.862843 0.039969 0
1.08273 0.317025 0
0.9524 0.538304 0
1.12745 0.109285 0
0.978483 0.0714075 0
0.645351 0.529675 0
1.1527 0.153728 0
0.882388 0.692708 0
0.862305 0.646607 0
0.842208 0.104367 0
0.945761 0.169561 0
0.685759 0.288028 0
1.08183 0.652182 0
1.06283 0.0525803 0
0.372912 0.381727 0
0.964886 0.159934 0
0.617774 0.764554 0
0.974682 0.0902371 0
0.966547 0.0915955 0
0.976368 0.100632 0
0.320699 0.352467 0
0.392232 0.277876 0
0.348697 0.239212 0
0.977227 0.082264 0
0.986149 0.0896122 0
0.793909 0.0219328 0
0.811508 0.0194888 0
1.09947 0.0380397 0
1.09872 0.0475915 0
1.10794 0.0485323 0
1.61992 0.060096 0
1.6224 0.0980883 0
0.875138 0.381023 0
0.845003 0.343666 0
0.81178 0.371627 0
0.475282 0.484193 0
0.457653 0.412062 0
0.382907 0.47714 0
0.888255 0.546271 0
0.835154 0.507548 0
0.815709 0.556199 0
1.53623 0.034078 0
1.58627 0.109667 0
0.878022 0.152021 0
0.879136 0.175334 0
0.891098 0.157809 0
0.898647 0.0275829 0
0.888149 0.0250688 0
0.892845 0.0359483 0
1.10633 0.0729574 0
1.09373 0.0689296 0
1.09228 0.0811855 0
0.772515 0.0170624 0
0.787864 0.0387285 0
0.827273 0.0333901 0
0.830534 0.0154946 0
1.11612 0.0088056 0
1.12343 0.00967834 0
0.890284 0.00918511 0
0.897599 0.0083786 0
1.06599 0.100322 0
1.08175 0.105391 0
1.07036 0.0920097 0
0.879468 0.0459253 0
0.888149 0.055505 0
0.888159 0.0441686 0
0.899745 0.0444266 0
1.12679 0.0237795 0
1.12208 0.0308816 0
1.12946 0.0366518 0
1.98641 0.437881 0
1.94209 0.255338 0
2.04952 0.349969 0
1.07279 0.16257 0
1.0512 0.161144 0
1.05689 0.181648 0
0.939912 0.0376315 0
0.944154 0.0450095 0
1.08536 0.130709 0
1.10132 0.129317 0
1.08877 0.11504 0
1.08128 0.064537 0
1.09135 0.0581463 0
0.643653 0.334801 0
0.565415 0.349727 0
0.626619 0.407216 0
1.05415 0.100411 0
1.06139 0.11589 0
0.427851 0.347588 0
0.445557 0.260635 0
0.89898 0.119302 0
0.892953 0.104515 0
0.881908 0.120696 0
0.843933 0.0137782 0
1.20137 0.0135956 0
1.21934 0.0154527 0
1.57725 0.18421 0
1.52352 0.125086 0
1.0307 0.261685 0
1.05901 0.276186 0
1.04913 0.24739 0
0.503347 0.379552 0
0.543607 0.302013 0
0.851327 0.233422 0
0.854381 0.209687 0
0.823195 0.213065 0
1.14994 0.00969244 0
1.16119 0.0108492 0
0.755906 0.580652 0
0.819087 0.63791 0
1.13999 0.00643294 0
1.14462 0.0174318 0
0.561709 0.539783 0
0.513236 0.522412 0
1.08616 0.0466596 0
0.908126 0.16838 0
0.903848 0.148752 0
0.693106 0.0367678 0
0.724169 0.0316953 0
1.32699 0.817908 0
1.25742 0.828437 0
1.37663 0.835816 0
1.22659 0.0303038 0
1.23945 0.0116987 0
0.720122 0.192745 0
0.759127 0.202821 0
0.744223 0.168151 0
1.26759 0.271002 0
1.29852 0.287023 0
1.28264 0.235761 0
1.23707 0.312664 0
1.23191 0.263361 0
0.779307 0.238647 0
0.757636 0.279909 0
0.803006 0.278251 0
1.16572 0.517216 0
1.18304 0.571795 0
1.20468 0.527197 0
1.00169 0.46648 0
0.970849 0.433439 0
0.957865 0.468174 0
0.3733 0.482781 0
0.332089 0.459251 0
1.23609 0.494305 0
1.25781 0.538022 0
0.847794 0.179171 0
0.870237 0.195708 0
0.878486 0.31518 0
0.82977 0.304301 0
1.6672 0.287607 0
1.53668 0.271848 0
1.54363 0.378185 0
1.26922 0.723988 0
1.24036 0.772187 0
1.07148 0.130252 0
1.08005 0.147722 0
0.799084 0.750938 0
0.731965 0.773831 0
0.76824 0.837515 0
0.669387 0.12563 0
0.633959 0.144978 0
0.679844 0.173759 0
1.19953 0.836694 0
1.16519 0.743194 0
0.949546 0.302366 0
0.98695 0.295937 0
0.960385 0.277458 0
1.22558 0.090227 0
1.21232 0.0687761 0
1.20141 0.0898267 0
0.747884 0.351209 0
0.738196 0.312968 0
0.689031 0.330268 0
1.16828 0.328839 0
1.16088 0.293449 0
1.12766 0.316706 0
0.915726 0.462276 0
0.946032 0.505968 0
0.710996 0.106697 0
0.679342 0.0765601 0
0.794021 0.209857 0
0.236391 0.414071 0
0.203903 0.379778 0
1.11566 0.0403832 0
1.11442 0.0290993 0
1.03551 0.153059 0
1.04955 0.140301 0
0.979392 0.251751 0
0.948989 0.254955 0
1.01127 0.171397 0
1.01958 0.156241 0
1.00119 0.150636 0
0.969704 0.118122 0
0.985009 0.126662 0
0.979398 0.111324 0
0.887149 0.0886054 0
0.90068 0.0902091 0
1.11673 0.0605934 0
1.11654 0.0696623 0
1.12979 0.0710693 0
1.23443 0.109234 0
1.24871 0.0826428 0
1.53281 0.276383 0
1.36608 0.454491 0
1.32788 0.46279 0
1.3155 0.503424 0
0.837063 0.065999 0
0.845376 0.0775357 0
0.855313 0.0684008 0
0.711784 0.522449 0
0.723143 0.439866 0
0.673325 0.446034 0
1.17629 0.26563 0
1.20207 0.250422 0
1.17617 0.225652 0
0.868318 0.115879 0
0.874949 0.134798 0
1.22274 0.218668 0
0.743628 0.0494072 0
0.748838 0.0196231 0
1.2001 0.139462 0
1.21247 0.162432 0
1.22681 0.13186 0
1.72711 0.178085 0
1.96408 0.0344787 0
0.832262 0.0906919 0
0.853329 0.0900275 0
0.939951 0.0505719 0
0.94971 0.0489553 0
1.02288 0.137306 0
0.822685 0.163404 0
0.840165 0.155126 0
1.14189 0.261386 0
0.607062 0.185849 0
0.596829 0.123135 0
0.939097 0.0294959 0
0.931821 0.036051 0
0.803063 0.0756563 0
0.815114 0.0589428 0
0.793282 0.0554182 0
0.990993 0.406615 0
0.954974 0.406462 0
1.11623 0.502352 0
1.08198 0.502746 0
1.10048 0.557137 0
0.770354 0.0557658 0
1.04708 0.194313 0
1.031 0.202466 0
1.04572 0.225467 0
1.10596 0.0313508 0
1.09723 0.0320922 0
0.714316 0.258558 0
1.53602 0.720464 0
1.45036 0.740176 0
1.03253 0.535285 0
0.684066 0.664727 0
0.682755 0.598186 0
0.630001 0.585067 0
0.958288 0.1097 0
0.960007 0.127053 0
0.926377 0.0239806 0
0.930331 0.0193753 0
0.924763 0.0156635 0
0.102833 0.259251 0
0.0829468 0.227019 0
1.4999 0.5306 0
1.48129 0.412071 0
1.42142 0.424588 0
1.0453 0.0824394 0
1.03349 0.0856438 0
1.04422 0.0932776 0
1.01333 0.378606 0
1.01186 0.348707 0
0.976884 0.352615 0
0.619514 0.713642 0
0.546632 0.699013 0
0.536083 0.749475 0
1.11427 0.124923 0
1.11146 0.144976 0
0.695859 0.727091 0
0.653093 0.799102 0
0.908714 0.0472421 0
0.917098 0.0454743 0
0.912143 0.0362992 0
0.88829 0.200426 0
0.972998 0.0763831 0
0.970535 0.0686545 0
0.964295 0.0733101 0
0.790779 0.131522 0
0.766602 0.149784 0
0.800322 0.155921 0
1.05002 0.860004 0
0.967854 0.824106 0
1.11175 0.858767 0
1.16249 0.197256 0
1.14503 0.208414 0
1.01732 0.188246 0
1.00988 0.216194 0
1.0183 0.0977423 0
1.02295 0.0881768 0
1.01244 0.0884354 0
1.04293 0.123602 0
1.03357 0.11595 0
1.02669 0.124371 0
0.736317 0.134755 0
0.738032 0.0957435 0
1.02479 0.533083 0
1.04934 0.48394 0
0.881125 0.0775802 0
0.869221 0.0910154 0
1.45014 0.135218 0
1.39548 0.151577 0
1.43582 0.195956 0
1.188 0.0395563 0
1.19209 0.0245557 0
1.17507 0.0324907 0
1.35736 0.813742 0
1.46117 0.800941 0
1.24376 0.0473519 0
1.22173 0.046572 0
1.90248 0.533349 0
1.32458 0.324519 0
0.882347 0.00695217 0
0.887362 0.0161615 0
1.03879 0.104445 0
0.809829 0.458513 0
0.868021 0.457604 0
1.08397 0.0840373 0
1.07033 0.0828713 0
1.07445 0.198373 0
0.767578 0.453671 0
0.73244 0.395131 0
1.12693 0.0167785 0
1.13102 0.00585319 0
0.695317 0.2205 0
1.11647 0.085576 0
0.860063 0.148602 0
0.84063 0.134128 0
1.05568 0.1281 0
0.585818 0.48619 0
0.940585 0.0960808 0
0.936873 0.0863737 0
0.927837 0.0907069 0
0.828982 0.0507241 0
1.20071 0.0518416 0
1.16 0.176198 0
1.19054 0.1861 0
1.05823 0.305821 0