<?xml version="1.0"?>
<VTKFile type="UnstructuredGrid">
  <UnstructuredGrid>
  <Piece NumberOfPoints="5412"  NumberOfCells="2638">
    <Points>
      <DataArray type="Float64" NumberOfComponents="3" format="ascii">
8.5 7.5 0.1
9 8 0.1
8.5 8.5 0.1
8 8 0.1
8.5 6 0.1
10.5 8 0.1
8.5 10 0.1
6.5 8 0.1
8.5 5 0.1
11.5 8 0.1
8.5 11 0.1
5.5 8 0.1
8.53923 7.50154 0.1
8.57822 7.50616 0.1
8.61672 7.51382 0.1
8.65451 7.52447 0.1
8.69134 7.53806 0.1
8.727 7.5545 0.1
8.76125 7.57368 0.1
8.79389 7.59549 0.1
8.82472 7.6198 0.1
8.85355 7.64645 0.1
8.8802 7.67528 0.1
8.90451 7.70611 0.1
8.92632 7.73875 0.1
8.9455 7.773 0.1
8.96194 7.80866 0.1
8.97553 7.84549 0.1
8.98618 7.88328 0.1
8.99384 7.92178 0.1
8.99846 7.96077 0.1
8.51963 7.50039 0.1
8.55877 7.50347 0.1
8.59755 7.50961 0.1
8.63572 7.51877 0.1
8.67306 7.5309 0.1
8.70933 7.54593 0.1
8.74431 7.56375 0.1
8.77779 7.58427 0.1
8.80955 7.60734 0.1
8.8394 7.63284 0.1
8.86716 7.6606 0.1
8.89266 7.69045 0.1
8.91573 7.72221 0.1
8.93625 7.75569 0.1
8.95407 7.79067 0.1
8.9691 7.82694 0.1
8.98123 7.86428 0.1
8.99039 7.90245 0.1
8.99653 7.94123 0.1
8.99961 7.98037 0.1
8.99846 8.03923 0.1
8.99384 8.07822 0.1
8.98618 8.11672 0.1
8.97553 8.15451 0.1
8.96194 8.19134 0.1
8.9455 8.227 0.1
8.92632 8.26125 0.1
8.90451 8.29389 0.1
8.8802 8.32472 0.1
8.85355 8.35355 0.1
8.82472 8.3802 0.1
8.79389 8.40451 0.1
8.76125 8.42632 0.1
8.727 8.4455 0.1
8.69134 8.46194 0.1
8.65451 8.47553 0.1
8.61672 8.48618 0.1
8.57822 8.49384 0.1
8.53923 8.49846 0.1
8.99961 8.01963 0.1
8.99653 8.05877 0.1
8.99039 8.09755 0.1
8.98123 8.13572 0.1
8.9691 8.17306 0.1
8.95407 8.20933 0.1
8.93625 8.24431 0.1
8.91573 8.27779 0.1
8.89266 8.30955 0.1
8.86716 8.3394 0.1
8.8394 8.36716 0.1
8.80955 8.39266 0.1
8.77779 8.41573 0.1
8.74431 8.43625 0.1
8.70933 8.45407 0.1
8.67306 8.4691 0.1
8.63572 8.48123 0.1
8.59755 8.49039 0.1
8.55877 8.49653 0.1
8.51963 8.49961 0.1
8.46077 8.49846 0.1
8.42178 8.49384 0.1
8.38328 8.48618 0.1
8.34549 8.47553 0.1
8.30866 8.46194 0.1
8.273 8.4455 0.1
8.23875 8.42632 0.1
8.20611 8.40451 0.1
8.17528 8.3802 0.1
8.14645 8.35355 0.1
8.1198 8.32472 0.1
8.09549 8.29389 0.1
8.07368 8.26125 0.1
8.0545 8.227 0.1
8.03806 8.19134 0.1
8.02447 8.15451 0.1
8.01382 8.11672 0.1
8.00616 8.07822 0.1
8.00154 8.03923 0.1
8.48037 8.49961 0.1
8.44123 8.49653 0.1
8.40245 8.49039 0.1
8.36428 8.48123 0.1
8.32694 8.4691 0.1
8.29067 8.45407 0.1
8.25569 8.43625 0.1
8.22221 8.41573 0.1
8.19045 8.39266 0.1
8.1606 8.36716 0.1
8.13284 8.3394 0.1
8.10734 8.30955 0.1
8.08427 8.27779 0.1
8.06375 8.24431 0.1
8.04593 8.20933 0.1
8.0309 8.17306 0.1
8.01877 8.13572 0.1
8.00961 8.09755 0.1
8.00347 8.05877 0.1
8.00039 8.01963 0.1
8.00154 7.96077 0.1
8.00616 7.92178 0.1
8.01382 7.88328 0.1
8.02447 7.84549 0.1
8.03806 7.80866 0.1
8.0545 7.773 0.1
8.07368 7.73875 0.1
8.09549 7.70611 0.1
8.1198 7.67528 0.1
8.14645 7.64645 0.1
8.17528 7.6198 0.1
8.20611 7.59549 0.1
8.23875 7.57368 0.1
8.273 7.5545 0.1
8.30866 7.53806 0.1
8.34549 7.52447 0.1
8.38328 7.51382 0.1
8.42178 7.50616 0.1
8.46077 7.50154 0.1
8.00039 7.98037 0.1
8.00347 7.94123 0.1
8.00961 7.90245 0.1
8.01877 7.86428 0.1
8.0309 7.82694 0.1
8.04593 7.79067 0.1
8.06375 7.75569 0.1
8.08427 7.72221 0.1
8.10734 7.69045 0.1
8.13284 7.6606 0.1
8.1606 7.63284 0.1
8.19045 7.60734 0.1
8.22221 7.58427 0.1
8.25569 7.56375 0.1
8.29067 7.54593 0.1
8.32694 7.5309 0.1
8.36428 7.51877 0.1
8.40245 7.50961 0.1
8.44123 7.50347 0.1
8.48037 7.50039 0.1
8.72393 6.01258 0.1
8.94504 6.05014 0.1
9.16056 6.11223 0.1
9.36777 6.19806 0.1
9.56406 6.30655 0.1
9.74698 6.43634 0.1
9.91421 6.58579 0.1
10.0637 6.75302 0.1
10.1934 6.93594 0.1
10.3019 7.13223 0.1
10.3878 7.33944 0.1
10.4499 7.55496 0.1
10.4874 7.77607 0.1
8.61214 6.00315 0.1
8.83501 6.02826 0.1
9.05367 6.07817 0.1
9.26537 6.15224 0.1
9.46744 6.24955 0.1
9.65734 6.36888 0.1
9.83269 6.50872 0.1
9.99128 6.66731 0.1
10.1311 6.84266 0.1
10.2504 7.03256 0.1
10.3478 7.23463 0.1
10.4218 7.44633 0.1
10.4717 7.66499 0.1
10.4969 7.88786 0.1
10.4874 8.22393 0.1
10.4499 8.44504 0.1
10.3878 8.66056 0.1
10.3019 8.86777 0.1
10.1934 9.06406 0.1
10.0637 9.24698 0.1
9.91421 9.41421 0.1
9.74698 9.56366 0.1
9.56406 9.69345 0.1
9.36777 9.80194 0.1
9.16056 9.88777 0.1
8.94504 9.94986 0.1
8.72393 9.98742 0.1
10.4969 8.11214 0.1
10.4717 8.33501 0.1
10.4218 8.55367 0.1
10.3478 8.76537 0.1
10.2504 8.96744 0.1
10.1311 9.15734 0.1
9.99128 9.33269 0.1
9.83269 9.49128 0.1
9.65734 9.63112 0.1
9.46744 9.75045 0.1
9.26537 9.84776 0.1
9.05367 9.92183 0.1
8.83501 9.97174 0.1
8.61214 9.99685 0.1
8.27607 9.98742 0.1
8.05496 9.94986 0.1
7.83944 9.88777 0.1
7.63223 9.80194 0.1
7.43594 9.69345 0.1
7.25302 9.56366 0.1
7.08579 9.41421 0.1
6.93634 9.24698 0.1
6.80655 9.06406 0.1
6.69806 8.86777 0.1
6.61223 8.66056 0.1
6.55014 8.44504 0.1
6.51258 8.22393 0.1
8.38786 9.99685 0.1
8.16499 9.97174 0.1
7.94633 9.92183 0.1
7.73463 9.84776 0.1
7.53256 9.75045 0.1
7.34266 9.63112 0.1
7.16731 9.49128 0.1
7.00872 9.33269 0.1
6.86888 9.15734 0.1
6.74955 8.96744 0.1
6.65224 8.76537 0.1
6.57817 8.55367 0.1
6.52826 8.33501 0.1
6.50315 8.11214 0.1
6.51258 7.77607 0.1
6.55014 7.55496 0.1
6.61223 7.33944 0.1
6.69806 7.13223 0.1
6.80655 6.93594 0.1
6.93634 6.75302 0.1
7.08579 6.58579 0.1
7.25302 6.43634 0.1
7.43594 6.30655 0.1
7.63223 6.19806 0.1
7.83944 6.11223 0.1
8.05496 6.05014 0.1
8.27607 6.01258 0.1
6.50315 7.88786 0.1
6.52826 7.66499 0.1
6.57817 7.44633 0.1
6.65224 7.23463 0.1
6.74955 7.03256 0.1
6.86888 6.84266 0.1
7.00872 6.66731 0.1
7.16731 6.50872 0.1
7.34266 6.36888 0.1
7.53256 6.24955 0.1
7.73463 6.15224 0.1
7.94633 6.07817 0.1
8.16499 6.02826 0.1
8.38786 6.00315 0.1
8.83589 5.01886 0.1
9.16756 5.07522 0.1
9.49084 5.16835 0.1
9.80165 5.29709 0.1
10.0961 5.45983 0.1
10.3705 5.65451 0.1
10.6213 5.87868 0.1
10.8455 6.12953 0.1
11.0402 6.4039 0.1
11.2029 6.69835 0.1
11.3316 7.00916 0.1
11.4248 7.33244 0.1
11.4811 7.66411 0.1
8.66821 5.00472 0.1
9.00252 5.04239 0.1
9.33051 5.11725 0.1
9.64805 5.22836 0.1
9.95116 5.37433 0.1
10.236 5.55332 0.1
10.499 5.76307 0.1
10.7369 6.00096 0.1
10.9467 6.26399 0.1
11.1257 6.54884 0.1
11.2716 6.85195 0.1
11.3828 7.16949 0.1
11.4576 7.49748 0.1
11.4953 7.83179 0.1
11.4811 8.33589 0.1
11.4248 8.66756 0.1
11.3316 8.99084 0.1
11.2029 9.30165 0.1
11.0402 9.5961 0.1
10.8455 9.87047 0.1
10.6213 10.1213 0.1
10.3705 10.3455 0.1
10.0961 10.5402 0.1
9.80165 10.7029 0.1
9.49084 10.8316 0.1
9.16756 10.9248 0.1
8.83589 10.9811 0.1
11.4953 8.16821 0.1
11.4576 8.50252 0.1
11.3828 8.83051 0.1
11.2716 9.14805 0.1
11.1257 9.45116 0.1
10.9467 9.73601 0.1
10.7369 9.99904 0.1
10.499 10.2369 0.1
10.236 10.4467 0.1
9.95116 10.6257 0.1
9.64805 10.7716 0.1
9.33051 10.8828 0.1
9.00252 10.9576 0.1
8.66821 10.9953 0.1
8.16411 10.9811 0.1
7.83244 10.9248 0.1
7.50916 10.8316 0.1
7.19835 10.7029 0.1
6.9039 10.5402 0.1
6.62953 10.3455 0.1
6.37868 10.1213 0.1
6.15451 9.87047 0.1
5.95983 9.5961 0.1
5.79709 9.30165 0.1
5.66835 8.99084 0.1
5.57522 8.66756 0.1
5.51886 8.33589 0.1
8.33179 10.9953 0.1
7.99748 10.9576 0.1
7.66949 10.8828 0.1
7.35195 10.7716 0.1
7.04884 10.6257 0.1
6.76399 10.4467 0.1
6.50096 10.2369 0.1
6.26307 9.99904 0.1
6.05332 9.73601 0.1
5.87433 9.45116 0.1
5.72836 9.14805 0.1
5.61725 8.83051 0.1
5.54239 8.50252 0.1
5.50472 8.16821 0.1
5.51886 7.66411 0.1
5.57522 7.33244 0.1
5.66835 7.00916 0.1
5.79709 6.69835 0.1
5.95983 6.4039 0.1
6.15451 6.12953 0.1
6.37868 5.87868 0.1
6.62953 5.65451 0.1
6.9039 5.45983 0.1
7.19835 5.29709 0.1
7.50916 5.16835 0.1
7.83244 5.07522 0.1
8.16411 5.01886 0.1
5.50472 7.83179 0.1
5.54239 7.49748 0.1
5.61725 7.16949 0.1
5.72836 6.85195 0.1
5.87433 6.54884 0.1
6.05332 6.26399 0.1
6.26307 6.00096 0.1
6.50096 5.76307 0.1
6.76399 5.55332 0.1
7.04884 5.37433 0.1
7.35195 5.22836 0.1
7.66949 5.11725 0.1
7.99748 5.04239 0.1
8.33179 5.00472 0.1
8.5 6.1 0.1
8.5 6.2 0.1
8.5 6.3 0.1
8.5 6.4 0.1
8.5 6.5 0.1
8.5 6.6 0.1
8.5 6.7 0.1
8.5 6.8 0.1
8.5 6.9 0.1
8.5 7 0.1
8.5 7.1 0.1
8.5 7.2 0.1
8.5 7.3 0.1
8.5 7.4 0.1
8.5 6.05 0.1
8.5 6.15 0.1
8.5 6.25 0.1
8.5 6.35 0.1
8.5 6.45 0.1
8.5 6.55 0.1
8.5 6.65 0.1
8.5 6.75 0.1
8.5 6.85 0.1
8.5 6.95 0.1
8.5 7.05 0.1
8.5 7.15 0.1
8.5 7.25 0.1
8.5 7.35 0.1
8.5 7.45 0.1
9.1 8 0.1
9.2 8 0.1
9.3 8 0.1
9.4 8 0.1
9.5 8 0.1
9.6 8 0.1
9.7 8 0.1
9.8 8 0.1
9.9 8 0.1
10 8 0.1
10.1 8 0.1
10.2 8 0.1
10.3 8 0.1
10.4 8 0.1
9.05 8 0.1
9.15 8 0.1
9.25 8 0.1
9.35 8 0.1
9.45 8 0.1
9.55 8 0.1
9.65 8 0.1
9.75 8 0.1
9.85 8 0.1
9.95 8 0.1
10.05 8 0.1
10.15 8 0.1
10.25 8 0.1
10.35 8 0.1
10.45 8 0.1
8.5 8.6 0.1
8.5 8.7 0.1
8.5 8.8 0.1
8.5 8.9 0.1
8.5 9 0.1
8.5 9.1 0.1
8.5 9.2 0.1
8.5 9.3 0.1
8.5 9.4 0.1
8.5 9.5 0.1
8.5 9.6 0.1
8.5 9.7 0.1
8.5 9.8 0.1
8.5 9.9 0.1
8.5 8.55 0.1
8.5 8.65 0.1
8.5 8.75 0.1
8.5 8.85 0.1
8.5 8.95 0.1
8.5 9.05 0.1
8.5 9.15 0.1
8.5 9.25 0.1
8.5 9.35 0.1
8.5 9.45 0.1
8.5 9.55 0.1
8.5 9.65 0.1
8.5 9.75 0.1
8.5 9.85 0.1
8.5 9.95 0.1
6.6 8 0.1
6.7 8 0.1
6.8 8 0.1
6.9 8 0.1
7 8 0.1
7.1 8 0.1
7.2 8 0.1
7.3 8 0.1
7.4 8 0.1
7.5 8 0.1
7.6 8 0.1
7.7 8 0.1
7.8 8 0.1
7.9 8 0.1
6.55 8 0.1
6.65 8 0.1
6.75 8 0.1
6.85 8 0.1
6.95 8 0.1
7.05 8 0.1
7.15 8 0.1
7.25 8 0.1
7.35 8 0.1
7.45 8 0.1
7.55 8 0.1
7.65 8 0.1
7.75 8 0.1
7.85 8 0.1
7.95 8 0.1
8.5 5.33333 0.1
8.5 5.66667 0.1
8.5 5.16667 0.1
8.5 5.5 0.1
8.5 5.83333 0.1
10.8333 8 0.1
11.1667 8 0.1
10.6667 8 0.1
11 8 0.1
11.3333 8 0.1
8.5 10.3333 0.1
8.5 10.6667 0.1
8.5 10.1667 0.1
8.5 10.5 0.1
8.5 10.8333 0.1
5.83333 8 0.1
6.16667 8 0.1
5.66667 8 0.1
6 8 0.1
6.33333 8 0.1
9.42912 7.36778 0.1
8.98107 7.14335 0.1
9.12034 7.43554 0.1
9.01433 6.66213 0.1
9.17936 7.68419 0.1
9.85922 7.57796 0.1
8.76256 7.28829 0.1
9.38426 6.90812 0.1
8.92185 7.46489 0.1
9.02088 7.58931 0.1
9.52889 7.66584 0.1
8.77428 6.9572 0.1
9.79217 7.11621 0.1
9.14334 7.82286 0.1
9.23019 7.21456 0.1
8.76547 7.42416 0.1
8.78426 6.45 0.1
10.05 7.73427 0.1
9.02751 7.71032 0.1
9.75 7.78105 0.1
8.64858 7.43517 0.1
9.37911 7.79108 0.1
9.35145 7.59348 0.1
8.67575 6.75137 0.1
8.82688 7.51565 0.1
8.89755 7.56932 0.1
9.00894 6.90235 0.1
9.31754 6.58936 0.1
8.99619 7.31062 0.1
8.67317 7.1143 0.1
8.70809 6.25 0.1
10.2334 7.80568 0.1
9.45268 7.13775 0.1
[...]
    <PointData>
      <DataArray type="Float64" NumberOfComponents="3" Name="Velocity" format="ascii">
0 0 0
0 0 0
0 0 0
0 0 0
1.04677 0.00216564 0
0.935472 -1.29734e-05 0
1.04655 -0.00209845 0
0.935976 -6.46949e-06 0
1.03339 -0.00114282 0
0.972155 -1.85048e-05 0
1.03325 0.00101169 0
0.975038 -9.03479e-06 0
0 0 0
0 0 0
0 0 0
0 0 0
0 0 0
0 0 0
0 0 0
0 0 0
0 0 0
0 0 0
0 0 0
0 0 0
0 0 0
0 0 0
0 0 0
0 0 0
0 0 0
0 0 0
0 0 0
0 0 0
0 0 0
0 0 0
0 0 0
0 0 0
0 0 0
0 0 0
0 0 0
0 0 0
0 0 0
0 0 0
0 0 0
0 0 0
0 0 0
0 0 0
0 0 0
0 0 0
0 0 0
0 0 0
0 0 0
0 0 0
0 0 0
0 0 0
0 0 0
0 0 0
0 0 0
0 0 0
0 0 0
0 0 0
0 0 0
0 0 0
0 0 0
0 0 0
0 0 0
0 0 0
0 0 0
0 0 0
0 0 0
0 0 0
0 0 0
0 0 0
0 0 0
0 0 0
0 0 0
0 0 0
0 0 0
0 0 0
0 0 0
0 0 0
0 0 0
0 0 0
0 0 0
0 0 0
0 0 0
0 0 0
0 0 0
0 0 0
0 0 0
0 0 0
0 0 0
0 0 0
0 0 0
0 0 0
0 0 0
0 0 0
0 0 0
0 0 0
0 0 0
0 0 0
0 0 0
0 0 0
0 0 0
0 0 0
0 0 0
0 0 0
0 0 0
0 0 0
0 0 0
0 0 0
0 0 0
0 0 0
0 0 0
0 0 0
0 0 0
0 0 0
0 0 0
0 0 0
0 0 0
0 0 0
0 0 0
0 0 0
0 0 0
0 0 0
0 0 0
0 0 0
0 0 0
0 0 0
0 0 0
0 0 0
0 0 0
0 0 0
0 0 0
0 0 0
0 0 0
0 0 0
0 0 0
0 0 0
0 0 0
0 0 0
0 0 0
0 0 0
0 0 0
0 0 0
0 0 0
0 0 0
0 0 0
0 0 0
0 0 0
0 0 0
0 0 0
0 0 0
0 0 0
0 0 0
0 0 0
0 0 0
0 0 0
0 0 0
0 0 0
0 0 0
0 0 0
0 0 0
0 0 0
0 0 0
0 0 0
0 0 0
0 0 0
0 0 0
1.05023 0.0140415 0
1.05346 0.0259516 0
1.05258 0.0377511 0
1.04564 0.0512416 0
1.03431 0.0606992 0
1.02133 0.0669988 0
1.00649 0.0690498 0
0.992793 0.0659258 0
0.977851 0.0622182 0
0.963668 0.055123 0
0.951424 0.0446185 0
0.941844 0.0312822 0
0.936945 0.0156584 0
1.04925 0.00569512 0
1.0525 0.0182774 0
1.05345 0.0318727 0
1.05039 0.0447017 0
1.04075 0.0555992 0
1.02796 0.0641771 0
1.0148 0.0690111 0
0.998145 0.0697188 0
0.983571 0.0659321 0
0.969183 0.0598287 0
0.955841 0.0505764 0
0.945672 0.0382391 0
0.938491 0.0237904 0
0.93493 0.00823976 0
0.936844 -0.01574 0
0.941706 -0.0312303 0
0.951078 -0.0444877 0
0.963941 -0.0547841 0
0.978618 -0.062199 0
0.99213 -0.0662455 0
1.00715 -0.0701752 0
1.02171 -0.0670431 0
1.03564 -0.0610275 0
1.04754 -0.0506797 0
1.05298 -0.0387757 0
1.054 -0.0270716 0
1.04798 -0.0133215 0
0.934958 -0.00825155 0
0.938572 -0.023884 0
0.945799 -0.0383004 0
0.955901 -0.0505062 0
0.968664 -0.0596972 0
0.983252 -0.0658714 0
0.999691 -0.0698814 0
1.0154 -0.0695965 0
1.02931 -0.065543 0
1.04279 -0.0571307 0
1.05251 -0.0452244 0
1.05427 -0.0317789 0
1.05211 -0.0184535 0
1.04834 -0.00561651 0
1.04624 0.0117273 0
1.04503 0.0245887 0
1.04059 0.0356043 0
1.03345 0.0454136 0
1.02305 0.0537696 0
1.00966 0.0592805 0
0.995475 0.0618701 0
0.982532 0.0605593 0
0.971388 0.0555901 0
0.961187 0.0476786 0
0.951918 0.0372756 0
0.943341 0.0255012 0
0.937928 0.0130086 0
1.04594 0.00658663 0
1.04581 0.0184922 0
1.04297 0.0310947 0
1.03693 0.0415726 0
1.02852 0.0499086 0
1.01687 0.0569273 0
1.00311 0.0607869 0
0.989513 0.0613402 0
0.977133 0.0584156 0
0.9659 0.0521047 0
0.956179 0.0427768 0
0.947612 0.0316162 0
0.940419 0.0193329 0
0.936622 0.00657107 0
0.937918 -0.0130206 0
0.943386 -0.0255145 0
0.951933 -0.0372742 0
0.961125 -0.0477656 0
0.971063 -0.0556196 0
0.982721 -0.0607251 0
0.995307 -0.0618864 0
1.00979 -0.0594139 0
1.02377 -0.0538505 0
1.03324 -0.0450345 0
1.04074 -0.0357251 0
1.04527 -0.0244643 0
1.04593 -0.0117333 0
0.936617 -0.00659277 0
0.940443 -0.0193644 0
0.947624 -0.0316158 0
0.956245 -0.0427478 0
0.966037 -0.0520795 0
0.977239 -0.0584282 0
0.989586 -0.0613751 0
1.00316 -0.0607477 0
1.01699 -0.0570488 0
1.02864 -0.0502075 0
1.03706 -0.0415036 0
1.04311 -0.0311416 0
1.0458 -0.0183848 0
1.04626 -0.0064473 0
1.03337 0.00524173 0
1.03106 0.0121294 0
1.02765 0.0182477 0
1.02273 0.0231748 0
1.0169 0.0268264 0
1.00995 0.0294653 0
1.00348 0.0303009 0
0.997553 0.0296329 0
0.990416 0.0274432 0
0.983941 0.0236748 0
0.979241 0.0184542 0
0.97561 0.0123903 0
0.972999 0.00628949 0
1.03343 0.00217486 0
1.03248 0.00853587 0
1.0297 0.0153646 0
1.02575 0.0208436 0
1.02031 0.0250239 0
1.01393 0.0281335 0
1.00702 0.0300415 0
1.00075 0.0300166 0
0.994113 0.0285418 0
0.98703 0.0257979 0
0.981491 0.0212001 0
0.977363 0.0154785 0
0.974278 0.00938225 0
0.97243 0.00321343 0
0.973001 -0.00630956 0
0.975607 -0.0124035 0
0.979259 -0.0184402 0
0.984046 -0.0237564 0
0.990485 -0.0273498 0
0.997605 -0.0294865 0
1.0037 -0.0302527 0
1.01033 -0.0293959 0
1.01729 -0.0267416 0
1.02298 -0.0231962 0
1.02755 -0.0181868 0
1.03089 -0.0122132 0
1.03282 -0.00526133 0
0.972425 -0.00322563 0
0.974264 -0.0093829 0
0.977335 -0.0154763 0
0.981509 -0.0211981 0
0.986992 -0.025781 0
0.994073 -0.0285885 0
1.00066 -0.0299879 0
1.00686 -0.0300293 0
1.01389 -0.0282333 0
1.02033 -0.0251336 0
1.02551 -0.0208535 0
1.02987 -0.0153611 0
1.03226 -0.00867292 0
1.03336 -0.00190109 0
1.03196 0.00694727 0
1.02927 0.0130833 0
1.02571 0.0185513 0
1.02114 0.0232847 0
1.01534 0.0267242 0
1.00872 0.0286676 0
1.00269 0.0287587 0
0.996861 0.0276087 0
0.990513 0.0262573 0
0.984632 0.0245082 0
0.979734 0.0200559 0
0.976569 0.013309 0
0.975385 0.00636537 0
1.03285 0.00405628 0
1.03073 0.00987147 0
1.02779 0.0158861 0
1.02374 0.0210811 0
1.0185 0.0251362 0
1.01226 0.0278493 0
1.0058 0.028988 0
1 0.0282548 0
0.993797 0.026722 0
0.987704 0.0255145 0
0.982196 0.0225798 0
0.97792 0.0168083 0
0.975807 0.00986514 0
0.975126 0.00319167 0
0.975354 -0.00637038 0
0.976499 -0.0133678 0
0.979693 -0.020033 0
0.984688 -0.024584 0
0.990503 -0.0263771 0
0.996797 -0.0276036 0
1.00267 -0.028637 0
1.00883 -0.028653 0
1.01539 -0.0266574 0
1.02114 -0.0232375 0
1.0259 -0.0186719 0
1.02929 -0.0130922 0
1.03212 -0.00712946 0
0.97512 -0.00320833 0
0.975844 -0.00993462 0
0.977978 -0.0168363 0
0.982302 -0.0225042 0
0.987752 -0.0255354 0
0.993848 -0.0267673 0
0.999929 -0.0281777 0
1.00578 -0.0290283 0
1.0122 -0.0278722 0
1.01848 -0.0251073 0
1.02373 -0.0209862 0
1.02778 -0.0159332 0
1.03095 -0.00988087 0
1.03299 -0.00392161 0
1.08294 -0.00260148 0
1.09697 -0.00399255 0
1.10541 -0.00405085 0
1.11882 -0.00504386 0
1.13331 -0.00599721 0
1.15218 -0.00730203 0
1.17477 -0.00904363 0
1.20327 -0.0114159 0
1.23974 -0.0147835 0
1.28757 -0.0196076 0
1.3509 -0.0272726 0
1.43759 -0.0389704 0
1.5645 -0.0598946 0
1.70501 -0.0776333 0
1.06715 -6.97779e-05 0
1.09318 -0.00364484 0
1.10026 -0.00389127 0
1.11193 -0.00459692 0
1.12583 -0.00550907 0
1.14223 -0.00660607 0
1.16276 -0.00811222 0
1.18801 -0.0101241 0
1.22024 -0.012963 0
1.26169 -0.0169439 0
1.31613 -0.0228886 0
1.39104 -0.0321889 0
1.49481 -0.0466827 0
1.64091 -0.0771634 0
1.68214 -0.131788 0
0.0647421 2.51963e-05 0
0.342967 0.000907169 0
0.512897 0.000294949 0
0.624447 0.000429798 0
0.701654 9.83747e-05 0
0.756384 5.789e-05 0
0.798644 0.000121361 0
0.830463 9.53427e-05 0
0.855798 4.33141e-06 0
0.875746 -3.62334e-06 0
0.892334 -1.58756e-05 0
0.905908 -1.54422e-05 0
0.917131 -1.57834e-05 0
0.92686 -1.54845e-05 0
-0.0438629 -0.0060285 0
0.211677 0.0046274 0
0.438323 0.000479661 0
0.573489 0.000655761 0
0.665967 0.000227475 0
0.731048 0.000138892 0
0.778824 8.92446e-05 0
0.815515 2.08063e-05 0
0.843831 -1.43719e-05 0
0.866315 -9.0243e-07 0
0.884431 -1.63489e-05 0
0.899406 -8.57696e-06 0
0.911758 -1.48706e-05 0
0.922197 -1.46346e-05 0
0.931267 -3.21336e-06 0
1.72921 0.0853683 0
1.57171 0.0612019 0
1.43665 0.038576 0
1.35048 0.0266486 0
1.28764 0.0197841 0
1.23958 0.0148137 0
1.2033 0.0113789 0
1.17486 0.00912889 0
1.15221 0.00741623 0
1.13326 0.00604124 0
1.11878 0.00511165 0
1.10534 0.0039369 0
1.09702 0.00375077 0
1.08295 0.00227347 0
1.67652 0.137834 0
1.63214 0.0664519 0
1.49476 0.0452892 0
1.39126 0.0319915 0
1.31553 0.0229027 0
1.26151 0.0170011 0
1.2201 0.0130122 0
1.18777 0.0102156 0
1.16261 0.00818881 0
1.14218 0.00669924 0
1.12577 0.0055385 0
1.11199 0.00454208 0
1.09994 0.00367313 0
1.09318 0.0035116 0
1.06679 -1.00663e-05 0
0.929878 -1.32284e-05 0
0.922681 -9.60551e-06 0
0.913613 -9.33952e-06 0
0.902153 -1.62196e-05 0
0.887716 -1.97823e-05 0
0.870191 -2.29764e-05 0
0.848111 -2.44885e-05 0
0.820957 -2.65526e-05 0
0.785426 -3.01905e-05 0
0.739959 -3.48681e-05 0
0.677242 -4.01123e-05 0
0.591945 -4.28402e-05 0
0.47038 -8.93023e-06 0
0.270806 0.000110688 0
0.932977 -1.23005e-05 0
0.926464 -1.32848e-05 0
0.918432 -5.94049e-06 0
0.908199 -1.12066e-05 0
0.89532 -1.68912e-05 0
0.879434 -2.19036e-05 0
0.859811 -2.42748e-05 0
0.835379 -2.50873e-05 0
0.80438 -2.80713e-05 0
0.764296 -3.21702e-05 0
0.711011 -3.7516e-05 0
0.638039 -4.59007e-05 0
0.536952 -6.23801e-05 0
0.38247 -8.62907e-05 0
0.143712 -0.000309496 0
1.04312 -0.00140822 0
1.05819 -0.00158499 0
1.03715 -0.00135821 0
1.05038 -0.00151959 0
1.05229 -0.0016421 0
0.95215 -1.11557e-05 0
0.964844 -1.70382e-05 0
0.944155 -1.42782e-05 0
0.959394 -6.60325e-06 0
0.96886 -1.65624e-06 0
1.058 0.00210401 0
1.04283 0.00132109 0
1.05247 0.00156892 0
1.05057 0.0014783 0
1.03718 0.00114425 0
0.966202 -1.1757e-05 0
0.953075 -5.38312e-06 0
0.971099 -1.33355e-05 0
0.960062 -2.03437e-05 0
0.945065 -5.80377e-06 0
0.930767 0.223742 0
1.18591 0.247227 0
1.00628 0.438825 0
1.11646 0.088486 0
0.690052 0.4281 0
0.888586 0.0853184 0
1.42805 0.282153 0
1.04548 0.14335 0
1.18496 0.612007 0
0.921127 0.718423 0
0.802958 0.157235 0
1.23059 0.105762 0
0.968336 0.113196 0
0.421516 0.461135 0
1.04163 0.255806 0
1.56308 0.478683 0
1.11726 0.0356035 0
0.895255 0.0410276 0
0.65094 0.758648 0
0.833141 0.0657584 0
1.84018 0.293014 0
0.676779 0.180279 0
0.803016 0.273746 0
1.18211 0.0391826 0
1.37819 0.733778 0
1.08947 0.849766 0
1.14384 0.143079 0
1.06634 0.0917795 0
1.16642 0.379209 0
1.34025 0.10352 0
1.09785 0.0180655 0
0.91361 0.0219557 0
0.998305 0.178857 0
0.883134 0.154888 0
0.942484 0.0784684 0
1.0088 0.105005 0
0.74106 0.730259 0
1.34823 0.433738 0
0.930787 0.312004 0
1.08643 0.0565491 0
0.82005 0.46223 0
0.75362 0.0857713 0
1.10005 0.194057 0
0.946462 0.159944 0
0.0714473 0.27011 0
0.253462 0.45991 0
0.928441 0.113472 0
1.54538 0.139575 0
1.29058 0.218563 0
1.0872 0.121473 0
0.500763 0.206765 0
1.46926 0.511756 0
1.16383 0.0948368 0
0.929959 0.0488956 0
1.14432 0.0248253 0
0.870396 0.0383518 0
1.05664 0.321157 0
0.976015 0.553871 0
1.25258 0.0540037 0
0.867219 0.116538 0
1.20771 0.16356 0
0.947087 0.637674 0
1.12698 0.0157205 0
0.854611 0.191015 0
1.04564 0.190089 0
1.91793 0.0940344 0
1.14054 0.05838 0
1.03716 0.102425 0
1.24173 0.304354 0
0.778352 0.577021 0
0.997185 0.128478 0
0.250581 0.27367 0
0.396865 0.370823 0
0.885793 0.0193475 0
0.713972 0.267486 0
0.769597 0.368997 0
0.550667 0.610369 0
1.16511 0.507439 0
1.10252 0.277657 0
0.988091 0.0878541 0
0.685544 0.0787251 0
0.787369 0.0463501 0
0.97592 0.258811 0
0.756106 0.205393 0
0.967869 0.0905996 0
1.37446 0.503911 0
0.14321 0.200968 0
0.868586 0.0656931 0
1.0991 0.0375143 0
1.18543 0.52219 0
0.3209 0.28749 0
1.0597 0.286742 0
0.909224 0.0625828 0
1.21938 0.0220301 0
1.42412 0.0723946 0
1.03908 0.749678 0
1.54114 0.293592 0
-0.0317065 0.0446497 0
-0.00393068 0.0767355 0
0.564423 0.350346 0
1.08948 0.00710618 0
0.923552 0.012401 0
1.31069 0.0373503 0
1.09002 0.076988 0
1.06399 0.0636551 0
0.911194 0.400454 0
0.807225 0.086613 0
1.07757 0.154031 0
1.0381 0.0801022 0
1.15843 0.189229 0
0.224876 0.193025 0
0.828172 0.0318588 0
1.11506 0.0589422 0
0.00146639 -0.00513083 0
1.26983 0.146783 0
0.878653 0.253606 0
1.41038 0.17313 0
1.16448 0.0163932 0
0.996424 0.362294 0
0.900389 0.0125991 0
1.11045 0.00848624 0
0.828414 0.160486 0
0.577922 0.11018 0
0.735123 0.140704 0
0.868889 0.548365 0
1.42293 -0.0215534 0
0.92145 0.0893095 0
1.10521 0.128617 0
0.972893 0.207034 0
1.05197 0.893945 0
0.0871363 0.08898 0
1.08817 0.410018 0
0.860322 0.852459 0
1.33315 0.829384 0
1.20603 0.0642385 0
1.17984 0.125359 0
1.43554 0.387583 0
1.02548 0.124229 0
-0.0540053 -0.0101087 0
0.912436 0.00983466 0
1.0992 0.00552497 0
1.01782 0.0848876 0
1.62371 0.106849 0
1.58517 0.646211 0
0.917522 0.176007 0
1.11589 0.115246 0
0.948095 0.100333 0
0.345097 0.164217 0
0.913893 0.0389006 0
-0.0263851 -0.071912 0
1.0758 0.00457536 0
0.930143 0.00750198 0
0.847639 0.146891 0
1.2815 0.0905404 0
0.867541 0.0164003 0
1.25066 0.504554 0
1.11052 0.0231124 0
1.007 0.217596 0
1.14369 0.00845191 0
0.945199 0.0603987 0
0.859165 0.321145 0
0.977502 0.148881 0
1.05778 0.12081 0
-0.0583327 -0.0642711 0
1.15851 0.301169 0
1.01627 0.150609 0
0.901463 0.116335 0
1.00786 0.299685 0
1.75371 0.427424 0
0.92738 0.028968 0
1.3341 0.321765 0
1.00308 0.0853719 0
0.737063 0.0426501 0
0.901576 0.0270376 0
0.920921 0.141093 0
0.948036 0.129276 0
1.07695 0.0416778 0
0.986196 0.107149 0
0.44426 0.127271 0
1.08464 0.0238525 0
0.609992 0.242462 0
0.849706 0.0226994 0
0.96265 0.0722039 0
0.541964 0.696709 0
1.35525 0.231457 0
0.929184 0.0679523 0
1.50024 0.0356352 0
1.18875 0.0113813 0
0.104148 0.203257 0
1.26406 0.409679 0
1.11202 0.154577 0
0.816996 0.217999 0
1.08254 0.229455 0
1.0513 0.0714021 0
0.928338 0.262334 0
0.887956 0.0591191 0
1.16835 0.0679897 0
0.931459 0.488441 0
1.15531 0.0414953 0
1.22584 0.211442 0
1.14141 0.0815224 0
1.38392 0.665867 0
0.890653 0.202706 0
0.450138 0.104907 0
1.19074 0.0920984 0
1.05488 0.494359 0
1.13299 0.0406148 0
0.783254 0.117685 0
1.09663 0.0976332 0
1.12936 0.238518 0
0.452505 0.322524 0
0.754092 0.454062 0
0.851597 0.0880498 0
1.49196 0.221685 0
1.36818 0.02779 0
1.07426 0.622942 0
1.32548 0.170387 0
0.932135 0.630178 0
1.26136 0.0154922 0
0.979022 0.0418246 0
0.849702 0.0451223 0
1.1089 0.34258 0
0.197744 0.0463415 0
1.14212 0.110145 0
0.978958 0.0787584 0
0.719403 0.70006 0
1.17337 0.155332 0
0.978005 0.87485 0
0.0396039 0.00526343 0
0.827835 0.118744 0
0.947366 0.188322 0
0.665187 0.334177 0
1.17469 0.803769 0
1.06843 0.0545866 0
0.25378 0.481522 0
0.968243 0.176536 0
0.42382 0.513032 0
0.976139 0.0992846 0
0.967425 0.100781 0
0.9782 0.110531 0
0.147512 0.373432 0
0.286175 0.408239 0
0.198759 0.323545 0
0.978391 0.0905904 0
0.988274 0.0980271 0
0.770863 0.0253049 0
0.791089 0.0223497 0
1.10735 0.036379 0
1.1071 0.0466882 0
1.11697 0.0471002 0
1.61412 0.0132546 0
1.6699 0.028053 0
0.86961 0.434406 0
0.835723 0.392366 0
0.790538 0.41652 0
0.438325 0.632347 0
0.413247 0.584141 0
0.256112 0.48707 0
0.880153 0.615094 0
0.821831 0.562582 0
0.842514 0.654349 0
1.5363 -0.00646955 0
1.58004 0.0623435 0
0.870146 0.171689 0
0.87252 0.197999 0
0.885231 0.177645 0
0.889903 0.0306509 0
0.878137 0.0279946 0
0.883527 0.0401194 0
1.11685 0.0730694 0
1.10318 0.0696769 0
1.10243 0.0829609 0
0.746074 0.0198248 0
0.764007 0.0447768 0
0.809221 0.0380892 0
0.812823 0.0176208 0
1.1235 0.00472767 0
1.13084 0.0052799 0
0.880273 0.0102013 0
0.888432 0.00926384 0
1.07566 0.105115 0
1.09295 0.109513 0
1.07984 0.09598 0
0.868666 0.0516264 0
0.878648 0.0622182 0
0.878417 0.0494396 0
0.891452 0.0494802 0
1.13524 0.0198244 0
1.13073 0.0275571 0
1.13894 0.0331484 0
1.65791 0.235276 0
1.62804 0.130516 0
1.88105 0.194641 0
1.08768 0.172221 0
1.06392 0.17237 0
1.07184 0.194602 0
0.936362 0.0403512 0
0.941746 0.0484583 0
1.09876 0.136591 0
1.1159 0.133821 0
1.10125 0.119392 0
1.08955 0.0657234 0
1.09993 0.0583746 0
0.632175 0.400132 0
0.549792 0.458654 0
0.638818 0.509933 0
1.06279 0.106039 0
1.07172 0.12232 0
0.355659 0.506544 0
0.363946 0.380873 0
0.892669 0.13383 0
0.885366 0.117361 0
0.873409 0.13597 0
0.828074 0.0156157 0
1.21199 0.00435014 0
1.23045 0.00491933 0
1.59054 0.125085 0
1.52832 0.0812979 0
1.04943 0.28648 0
1.08261 0.300239 0
1.06982 0.268627 0
0.476004 0.540888 0
0.50341 0.398875 0
0.843597 0.265918 0
0.845909 0.23837 0
0.809791 0.243635 0
1.15877 0.00376017 0
1.17032 0.00429099 0
0.832301 0.724883 0
0.907783 0.798583 0
1.14818 0.000911677 0
1.15367 0.0121015 0
-0.0207757 -0.0182887 0
-0.016205 -0.0441939 0
1.09423 0.046503 0
0.904919 0.188797 0
0.899252 0.166883 0
0.652836 0.0439052 0
0.68965 0.0375017 0
1.16547 0.706342 0
0.675631 0.397065 0
0.977979 0.520885 0
1.239 0.0194967 0
1.25067 -0.000466628 0
0.692864 0.224805 0
0.735854 0.234252 0
0.71853 0.195678 0
1.30935 0.263363 0
1.34745 0.275468 0
1.31946 0.224968 0
1.28369 0.315485 0
1.27113 0.262321 0
0.76116 0.273657 0
0.737541 0.319017 0
0.787219 0.318003 0
1.22134 0.549151 0
1.27838 0.649597 0
1.28767 0.564418 0
1.0149 0.522252 0
0.992162 0.496416 0
0.948106 0.521535 0
-0.0425739 -0.0707484 0
-0.042703 -0.098444 0
1.30297 0.50772 0
1.39111 0.577497 0
0.836906 0.203996 0
0.863563 0.221754 0
0.881317 0.360212 0
0.818797 0.347008 0
1.7329 0.189004 0
1.59233 0.204747 0
1.67751 0.295915 0
1.37433 0.790071 0
1.23796 0.806504 0
1.08368 0.13722 0
1.09409 0.155455 0
0.834584 0.82612 0
0.65507 0.699911 0
0.497238 0.527061 0
0.628471 0.151231 0
0.587425 0.177823 0
0.645267 0.206963 0
1.0341 0.749909 0
1.22749 0.864764 0
0.960112 0.338369 0
1.00079 0.327553 0
0.969473 0.308807 0
1.24357 0.0810697 0
1.22773 0.0602191 0
1.21842 0.0830609 0
0.73114 0.394204 0
0.718827 0.355945 0
0.673841 0.382528 0
1.20829 0.343206 0
1.1978 0.305908 0
1.16136 0.336598 0
0.895905 0.513154 0
0.922807 0.553897 0
0.676763 0.126473 0
0.636893 0.0920013 0
0.776828 0.24076 0
-0.054699 -0.126592 0
-0.0497005 -0.149187 0
1.12458 0.0379739 0
1.12266 0.0261498 0
1.04603 0.164642 0
1.06039 0.149691 0
0.990293 0.278912 0
0.955213 0.284363 0
1.02045 0.18651 0
1.02869 0.169234 0
1.008 0.164192 0
0.971645 0.129889 0
0.988829 0.138642 0
0.981956 0.122072 0
0.878307 0.0995924 0
0.893631 0.101007 0
1.12709 0.0592876 0
1.12755 0.0689283 0
1.14168 0.0694457 0
1.2545 0.099715 0
1.2665 0.070948 0
1.56026 0.209823 0
1.47526 0.424857 0
1.40949 0.440602 0
1.46698 0.507244 0
0.820854 0.0751418 0
0.830797 0.0881054 0
0.841867 0.0774889 0
0.771428 0.644785 0
0.723489 0.500697 0
0.701365 0.541652 0
1.21274 0.27382 0
1.23896 0.253773 0
1.20738 0.230238 0
0.85784 0.131005 0
0.866059 0.152197 0
1.25705 0.21626 0
0.712717 0.0579146 0
0.718484 0.0229701 0
1.2222 0.135226 0
1.23757 0.157778 0
1.24908 0.124063 0
1.75615 0.0905091 0
1.87602 -0.0258501 0
0.816196 0.103437 0
0.840087 0.102121 0
0.937097 0.0552406 0
0.948609 0.0530741 0
1.03114 0.148171 0
0.807684 0.186845 0
0.82737 0.176646 0
1.17478 0.2743 0
0.558591 0.228851 0
0.538741 0.152616 0
0.934957 0.0312045 0
0.927181 0.0390061 0
0.782214 0.0869555 0
0.795707 0.0675286 0
0.770611 0.063941 0
1.03003 0.466203 0
0.978216 0.467182 0
1.15162 0.542997 0
1.10532 0.546973 0
1.13044 0.6196 0
0.744046 0.0648096 0
1.06152 0.209325 0
1.04461 0.219526 0
1.06314 0.243927 0
1.11394 0.0290472 0
1.10477 0.0301741 0
0.691124 0.299548 0
0.991168 0.337544 0
0.856722 0.315263 0
0.309233 0.0914132 0
0.757734 0.815794 0
0.792471 0.782091 0
0.719825 0.767473 0
0.958574 0.121072 0
0.961206 0.140188 0
0.920607 0.0259408 0
0.924682 0.0209369 0
0.918547 0.0169302 0
-0.0595291 -0.155276 0
-0.0472132 -0.147011 0
1.68225 0.473483 0
1.64074 0.35863 0
1.55852 0.37561 0
1.05221 0.0870072 0
1.03973 0.0914235 0
1.05167 0.0988648 0
1.05061 0.427581 0
1.03781 0.388289 0
1.00141 0.397448 0
0.555479 0.655989 0
0.401606 0.531811 0
0.271994 0.34887 0
1.12947 0.128015 0
1.12793 0.14981 0
0.69009 0.751935 0
0.348391 0.400509 0
0.901617 0.0524326 0
0.910906 0.050172 0
0.905155 0.0400705 0
0.884315 0.225924 0
0.97372 0.0841261 0
0.971187 0.0754582 0
0.965016 0.0808232 0
0.770111 0.15143 0
0.74318 0.173211 0
0.781211 0.179263 0
0.773287 0.671067 0
0.310515 0.259282 0
0.751524 0.604781 0
1.18811 0.20105 0
1.17064 0.215096 0
1.02831 0.204836 0
1.02238 0.236583 0
1.0237 0.105176 0
1.0282 0.0947911 0
1.01725 0.0957125 0
1.05215 0.131932 0
1.04148 0.124211 0
1.03446 0.133812 0
0.707402 0.157483 0
0.707696 0.112289 0
1.01705 0.588215 0
1.07068 0.533692 0
0.87124 0.0872765 0
0.858096 0.10279 0
1.47614 0.0991379 0
1.42247 0.121602 0
1.46969 0.159653 0
1.20012 0.0320936 0
1.20322 0.0162689 0
1.18626 0.0257101 0
0.773902 0.372781 0
1.30124 0.62079 0
1.25807 0.0353986 0
1.2354 0.0365371 0
1.55914 0.283275 0
0.953006 0.153641 0
0.871393 0.007735 0
0.877084 0.0180223 0
1.04642 0.11136 0
0.789564 0.505374 0
0.838915 0.50293 0
1.09385 0.0863692 0
1.07941 0.0863493 0
1.09213 0.211434 0
0.760933 0.50664 0
0.721285 0.443831 0
1.13495 0.012471 0
1.13859 0.000835344 0
0.667693 0.259756 0
1.12863 0.0858101 0
0.849692 0.168447 0
0.826987 0.152788 0
1.06634 0.135968 0
0.634666 0.662595 0
0.938581 0.106481 0
0.934183 0.0957595 0
0.924235 0.100847 0
0.811416 0.057895 0
1.21428 0.0437568 0
1.18376 0.178693 0
1.21699 0.185641 0