<?xml version="1.0"?>
<VTKFile type="UnstructuredGrid">
  <UnstructuredGrid>
  <Piece NumberOfPoints="5412"  NumberOfCells="2638">
    <Points>
      <DataArray type="Float64" NumberOfComponents="3" format="ascii">
8.5 7.5 0.1
9 8 0.1
8.5 8.5 0.1
8 8 0.1
8.5 6 0.1
10.5 8 0.1
8.5 10 0.1
6.5 8 0.1
8.5 5 0.1
11.5 8 0.1
8.5 11 0.1
5.5 8 0.1
8.53923 7.50154 0.1
8.57822 7.50616 0.1
8.61672 7.51382 0.1
8.65451 7.52447 0.1
8.69134 7.53806 0.1
8.727 7.5545 0.1
8.76125 7.57368 0.1
8.79389 7.59549 0.1
8.82472 7.6198 0.1
8.85355 7.64645 0.1
8.8802 7.67528 0.1
8.90451 7.70611 0.1
8.92632 7.73875 0.1
8.9455 7.773 0.1
8.96194 7.80866 0.1
8.97553 7.84549 0.1
8.98618 7.88328 0.1
8.99384 7.92178 0.1
8.99846 7.96077 0.1
8.51963 7.50039 0.1
8.55877 7.50347 0.1
8.59755 7.50961 0.1
8.63572 7.51877 0.1
8.67306 7.5309 0.1
8.70933 7.54593 0.1
8.74431 7.56375 0.1
8.77779 7.58427 0.1
8.80955 7.60734 0.1
8.8394 7.63284 0.1
8.86716 7.6606 0.1
8.89266 7.69045 0.1
8.91573 7.72221 0.1
8.93625 7.75569 0.1
8.95407 7.79067 0.1
8.9691 7.82694 0.1
8.98123 7.86428 0.1
8.99039 7.90245 0.1
8.99653 7.94123 0.1
8.99961 7.98037 0.1
8.99846 8.03923 0.1
8.99384 8.07822 0.1
8.98618 8.11672 0.1
8.97553 8.15451 0.1
8.96194 8.19134 0.1
8.9455 8.227 0.1
8.92632 8.26125 0.1
8.90451 8.29389 0.1
8.8802 8.32472 0.1
8.85355 8.35355 0.1
8.82472 8.3802 0.1
8.79389 8.40451 0.1
8.76125 8.42632 0.1
8.727 8.4455 0.1
8.69134 8.46194 0.1
8.65451 8.47553 0.1
8.61672 8.48618 0.1
8.57822 8.49384 0.1
8.53923 8.49846 0.1
8.99961 8.01963 0.1
8.99653 8.05877 0.1
8.99039 8.09755 0.1
8.98123 8.13572 0.1
8.9691 8.17306 0.1
8.95407 8.20933 0.1
8.93625 8.24431 0.1
8.91573 8.27779 0.1
8.89266 8.30955 0.1
8.86716 8.3394 0.1
8.8394 8.36716 0.1
8.80955 8.39266 0.1
8.77779 8.41573 0.1
8.74431 8.43625 0.1
8.70933 8.45407 0.1
8.67306 8.4691 0.1
8.63572 8.48123 0.1
8.59755 8.49039 0.1
8.55877 8.49653 0.1
8.51963 8.49961 0.1
8.46077 8.49846 0.1
8.42178 8.49384 0.1
8.38328 8.48618 0.1
8.34549 8.47553 0.1
8.30866 8.46194 0.1
8.273 8.4455 0.1
8.23875 8.42632 0.1
8.20611 8.40451 0.1
8.17528 8.3802 0.1
8.14645 8.35355 0.1
8.1198 8.32472 0.1
8.09549 8.29389 0.1
8.07368 8.26125 0.1
8.0545 8.227 0.1
8.03806 8.19134 0.1
8.02447 8.15451 0.1
8.01382 8.11672 0.1
8.00616 8.07822 0.1
8.00154 8.03923 0.1
8.48037 8.49961 0.1
8.44123 8.49653 0.1
8.40245 8.49039 0.1
8.36428 8.48123 0.1
8.32694 8.4691 0.1
8.29067 8.45407 0.1
8.25569 8.43625 0.1
8.22221 8.41573 0.1
8.19045 8.39266 0.1
8.1606 8.36716 0.1
8.13284 8.3394 0.1
8.10734 8.30955 0.1
8.08427 8.27779 0.1
8.06375 8.24431 0.1
8.04593 8.20933 0.1
8.0309 8.17306 0.1
8.01877 8.13572 0.1
8.00961 8.09755 0.1
8.00347 8.05877 0.1
8.00039 8.01963 0.1
8.00154 7.96077 0.1
8.00616 7.92178 0.1
8.01382 7.88328 0.1
8.02447 7.84549 0.1
8.03806 7.80866 0.1
8.0545 7.773 0.1
8.07368 7.73875 0.1
8.09549 7.70611 0.1
8.1198 7.67528 0.1
8.14645 7.64645 0.1
8.17528 7.6198 0.1
8.20611 7.59549 0.1
8.23875 7.57368 0.1
8.273 7.5545 0.1
8.30866 7.53806 0.1
8.34549 7.52447 0.1
8.38328 7.51382 0.1
8.42178 7.50616 0.1
8.46077 7.50154 0.1
8.00039 7.98037 0.1
8.00347 7.94123 0.1
8.00961 7.90245 0.1
8.01877 7.86428 0.1
8.0309 7.82694 0.1
8.04593 7.79067 0.1
8.06375 7.75569 0.1
8.08427 7.72221 0.1
8.10734 7.69045 0.1
8.13284 7.6606 0.1
8.1606 7.63284 0.1
8.19045 7.60734 0.1
8.22221 7.58427 0.1
8.25569 7.56375 0.1
8.29067 7.54593 0.1
8.32694 7.5309 0.1
8.36428 7.51877 0.1
8.40245 7.50961 0.1
8.44123 7.50347 0.1
8.48037 7.50039 0.1
8.72393 6.01258 0.1
8.94504 6.05014 0.1
9.16056 6.11223 0.1
9.36777 6.19806 0.1
9.56406 6.30655 0.1
9.74698 6.43634 0.1
9.91421 6.58579 0.1
10.0637 6.75302 0.1
10.1934 6.93594 0.1
10.3019 7.13223 0.1
10.3878 7.33944 0.1
10.4499 7.55496 0.1
10.4874 7.77607 0.1
8.61214 6.00315 0.1
8.83501 6.02826 0.1
9.05367 6.07817 0.1
9.26537 6.15224 0.1
9.46744 6.24955 0.1
9.65734 6.36888 0.1
9.83269 6.50872 0.1
9.99128 6.66731 0.1
10.1311 6.84266 0.1
10.2504 7.03256 0.1
10.3478 7.23463 0.1
10.4218 7.44633 0.1
10.4717 7.66499 0.1
10.4969 7.88786 0.1
10.4874 8.22393 0.1
10.4499 8.44504 0.1
10.3878 8.66056 0.1
10.3019 8.86777 0.1
10.1934 9.06406 0.1
10.0637 9.24698 0.1
9.91421 9.41421 0.1
9.74698 9.56366 0.1
9.56406 9.69345 0.1
9.36777 9.80194 0.1
9.16056 9.88777 0.1
8.94504 9.94986 0.1
8.72393 9.98742 0.1
10.4969 8.11214 0.1
10.4717 8.33501 0.1
10.4218 8.55367 0.1
10.3478 8.76537 0.1
10.2504 8.96744 0.1
10.1311 9.15734 0.1
9.99128 9.33269 0.1
9.83269 9.49128 0.1
9.65734 9.63112 0.1
9.46744 9.75045 0.1
9.26537 9.84776 0.1
9.05367 9.92183 0.1
8.83501 9.97174 0.1
8.61214 9.99685 0.1
8.27607 9.98742 0.1
8.05496 9.94986 0.1
7.83944 9.88777 0.1
7.63223 9.80194 0.1
7.43594 9.69345 0.1
7.25302 9.56366 0.1
7.08579 9.41421 0.1
6.93634 9.24698 0.1
6.80655 9.06406 0.1
6.69806 8.86777 0.1
6.61223 8.66056 0.1
6.55014 8.44504 0.1
6.51258 8.22393 0.1
8.38786 9.99685 0.1
8.16499 9.97174 0.1
7.94633 9.92183 0.1
7.73463 9.84776 0.1
7.53256 9.75045 0.1
7.34266 9.63112 0.1
7.16731 9.49128 0.1
7.00872 9.33269 0.1
6.86888 9.15734 0.1
6.74955 8.96744 0.1
6.65224 8.76537 0.1
6.57817 8.55367 0.1
6.52826 8.33501 0.1
6.50315 8.11214 0.1
6.51258 7.77607 0.1
6.55014 7.55496 0.1
6.61223 7.33944 0.1
6.69806 7.13223 0.1
6.80655 6.93594 0.1
6.93634 6.75302 0.1
7.08579 6.58579 0.1
7.25302 6.43634 0.1
7.43594 6.30655 0.1
7.63223 6.19806 0.1
7.83944 6.11223 0.1
8.05496 6.05014 0.1
8.27607 6.01258 0.1
6.50315 7.88786 0.1
6.52826 7.66499 0.1
6.57817 7.44633 0.1
6.65224 7.23463 0.1
6.74955 7.03256 0.1
6.86888 6.84266 0.1
7.00872 6.66731 0.1
7.16731 6.50872 0.1
7.34266 6.36888 0.1
7.53256 6.24955 0.1
7.73463 6.15224 0.1
7.94633 6.07817 0.1
8.16499 6.02826 0.1
8.38786 6.00315 0.1
8.83589 5.01886 0.1
9.16756 5.07522 0.1
9.49084 5.16835 0.1
9.80165 5.29709 0.1
10.0961 5.45983 0.1
10.3705 5.65451 0.1
10.6213 5.87868 0.1
10.8455 6.12953 0.1
11.0402 6.4039 0.1
11.2029 6.69835 0.1
11.3316 7.00916 0.1
11.4248 7.33244 0.1
11.4811 7.66411 0.1
8.66821 5.00472 0.1
9.00252 5.04239 0.1
9.33051 5.11725 0.1
9.64805 5.22836 0.1
9.95116 5.37433 0.1
10.236 5.55332 0.1
10.499 5.76307 0.1
10.7369 6.00096 0.1
10.9467 6.26399 0.1
11.1257 6.54884 0.1
11.2716 6.85195 0.1
11.3828 7.16949 0.1
11.4576 7.49748 0.1
11.4953 7.83179 0.1
11.4811 8.33589 0.1
11.4248 8.66756 0.1
11.3316 8.99084 0.1
11.2029 9.30165 0.1
11.0402 9.5961 0.1
10.8455 9.87047 0.1
10.6213 10.1213 0.1
10.3705 10.3455 0.1
10.0961 10.5402 0.1
9.80165 10.7029 0.1
9.49084 10.8316 0.1
9.16756 10.9248 0.1
8.83589 10.9811 0.1
11.4953 8.16821 0.1
11.4576 8.50252 0.1
11.3828 8.83051 0.1
11.2716 9.14805 0.1
11.1257 9.45116 0.1
10.9467 9.73601 0.1
10.7369 9.99904 0.1
10.499 10.2369 0.1
10.236 10.4467 0.1
9.95116 10.6257 0.1
9.64805 10.7716 0.1
9.33051 10.8828 0.1
9.00252 10.9576 0.1
8.66821 10.9953 0.1
8.16411 10.9811 0.1
7.83244 10.9248 0.1
7.50916 10.8316 0.1
7.19835 10.7029 0.1
6.9039 10.5402 0.1
6.62953 10.3455 0.1
6.37868 10.1213 0.1
6.15451 9.87047 0.1
5.95983 9.5961 0.1
5.79709 9.30165 0.1
5.66835 8.99084 0.1
5.57522 8.66756 0.1
5.51886 8.33589 0.1
8.33179 10.9953 0.1
7.99748 10.9576 0.1
7.66949 10.8828 0.1
7.35195 10.7716 0.1
7.04884 10.6257 0.1
6.76399 10.4467 0.1
6.50096 10.2369 0.1
6.26307 9.99904 0.1
6.05332 9.73601 0.1
5.87433 9.45116 0.1
5.72836 9.14805 0.1
5.61725 8.83051 0.1
5.54239 8.50252 0.1
5.50472 8.16821 0.1
5.51886 7.66411 0.1
5.57522 7.33244 0.1
5.66835 7.00916 0.1
5.79709 6.69835 0.1
5.95983 6.4039 0.1
6.15451 6.12953 0.1
6.37868 5.87868 0.1
6.62953 5.65451 0.1
6.9039 5.45983 0.1
7.19835 5.29709 0.1
7.50916 5.16835 0.1
7.83244 5.07522 0.1
8.16411 5.01886 0.1
5.50472 7.83179 0.1
5.54239 7.49748 0.1
5.61725 7.16949 0.1
5.72836 6.85195 0.1
5.87433 6.54884 0.1
6.05332 6.26399 0.1
6.26307 6.00096 0.1
6.50096 5.76307 0.1
6.76399 5.55332 0.1
7.04884 5.37433 0.1
7.35195 5.22836 0.1
7.66949 5.11725 0.1
7.99748 5.04239 0.1
8.33179 5.00472 0.1
8.5 6.1 0.1
8.5 6.2 0.1
8.5 6.3 0.1
8.5 6.4 0.1
8.5 6.5 0.1
8.5 6.6 0.1
8.5 6.7 0.1
8.5 6.8 0.1
8.5 6.9 0.1
8.5 7 0.1
8.5 7.1 0.1
8.5 7.2 0.1
8.5 7.3 0.1
8.5 7.4 0.1
8.5 6.05 0.1
8.5 6.15 0.1
8.5 6.25 0.1
8.5 6.35 0.1
8.5 6.45 0.1
8.5 6.55 0.1
8.5 6.65 0.1
8.5 6.75 0.1
8.5 6.85 0.1
8.5 6.95 0.1
8.5 7.05 0.1
8.5 7.15 0.1
8.5 7.25 0.1
8.5 7.35 0.1
8.5 7.45 0.1
9.1 8 0.1
9.2 8 0.1
9.3 8 0.1
9.4 8 0.1
9.5 8 0.1
9.6 8 0.1
9.7 8 0.1
9.8 8 0.1
9.9 8 0.1
10 8 0.1
10.1 8 0.1
10.2 8 0.1
10.3 8 0.1
10.4 8 0.1
9.05 8 0.1
9.15 8 0.1
9.25 8 0.1
9.35 8 0.1
9.45 8 0.1
9.55 8 0.1
9.65 8 0.1
9.75 8 0.1
9.85 8 0.1
9.95 8 0.1
10.05 8 0.1
10.15 8 0.1
10.25 8 0.1
10.35 8 0.1
10.45 8 0.1
8.5 8.6 0.1
8.5 8.7 0.1
8.5 8.8 0.1
8.5 8.9 0.1
8.5 9 0.1
8.5 9.1 0.1
8.5 9.2 0.1
8.5 9.3 0.1
8.5 9.4 0.1
8.5 9.5 0.1
8.5 9.6 0.1
8.5 9.7 0.1
8.5 9.8 0.1
8.5 9.9 0.1
8.5 8.55 0.1
8.5 8.65 0.1
8.5 8.75 0.1
8.5 8.85 0.1
8.5 8.95 0.1
8.5 9.05 0.1
8.5 9.15 0.1
8.5 9.25 0.1
8.5 9.35 0.1
8.5 9.45 0.1
8.5 9.55 0.1
8.5 9.65 0.1
8.5 9.75 0.1
8.5 9.85 0.1
8.5 9.95 0.1
6.6 8 0.1
6.7 8 0.1
6.8 8 0.1
6.9 8 0.1
7 8 0.1
7.1 8 0.1
7.2 8 0.1
7.3 8 0.1
7.4 8 0.1
7.5 8 0.1
7.6 8 0.1
7.7 8 0.1
7.8 8 0.1
7.9 8 0.1
6.55 8 0.1
6.65 8 0.1
6.75 8 0.1
6.85 8 0.1
6.95 8 0.1
7.05 8 0.1
7.15 8 0.1
7.25 8 0.1
7.35 8 0.1
7.45 8 0.1
7.55 8 0.1
7.65 8 0.1
7.75 8 0.1
7.85 8 0.1
7.95 8 0.1
8.5 5.33333 0.1
8.5 5.66667 0.1
8.5 5.16667 0.1
8.5 5.5 0.1
8.5 5.83333 0.1
10.8333 8 0.1
11.1667 8 0.1
10.6667 8 0.1
11 8 0.1
11.3333 8 0.1
8.5 10.3333 0.1
8.5 10.6667 0.1
8.5 10.1667 0.1
8.5 10.5 0.1
8.5 10.8333 0.1
5.83333 8 0.1
6.16667 8 0.1
5.66667 8 0.1
6 8 0.1
6.33333 8 0.1
9.42912 7.36778 0.1
8.98107 7.14335 0.1
9.12034 7.43554 0.1
9.01433 6.66213 0.1
9.17936 7.68419 0.1
9.85922 7.57796 0.1
8.76256 7.28829 0.1
9.38426 6.90812 0.1
8.92185 7.46489 0.1
9.02088 7.58931 0.1
9.52889 7.66584 0.1
8.77428 6.9572 0.1
9.79217 7.11621 0.1
9.14334 7.82286 0.1
9.23019 7.21456 0.1
8.76547 7.42416 0.1
8.78426 6.45 0.1
10.05 7.73427 0.1
9.02751 7.71032 0.1
9.75 7.78105 0.1
8.64858 7.43517 0.1
9.37911 7.79108 0.1
9.35145 7.59348 0.1
8.67575 6.75137 0.1
8.82688 7.51565 0.1
8.89755 7.56932 0.1
9.00894 6.90235 0.1
9.31754 6.58936 0.1
8.99619 7.31062 0.1
8.67317 7.1143 0.1
8.70809 6.25 0.1
10.2334 7.80568 0.1
9.45268 7.13775 0.1
[...]
    <PointData>
      <DataArray type="Float64" NumberOfComponents="3" Name="Velocity" format="ascii">
0 0 0
0 0 0
0 0 0
0 0 0
1.05404 0.00119237 0
0.936186 7.8882e-05 0
1.05441 -0.00108747 0
0.938307 -8.83065e-05 0
1.02636 0.00105067 0
0.978315 -2.81502e-05 0
1.02641 -0.00134608 0
0.981643 0.000168488 0
0 0 0
0 0 0
0 0 0
0 0 0
0 0 0
0 0 0
0 0 0
0 0 0
0 0 0
0 0 0
0 0 0
0 0 0
0 0 0
0 0 0
0 0 0
0 0 0
0 0 0
0 0 0
0 0 0
0 0 0
0 0 0
0 0 0
0 0 0
0 0 0
0 0 0
0 0 0
0 0 0
0 0 0
0 0 0
0 0 0
0 0 0
0 0 0
0 0 0
0 0 0
0 0 0
0 0 0
0 0 0
0 0 0
0 0 0
0 0 0
0 0 0
0 0 0
0 0 0
0 0 0
0 0 0
0 0 0
0 0 0
0 0 0
0 0 0
0 0 0
0 0 0
0 0 0
0 0 0
0 0 0
0 0 0
0 0 0
0 0 0
0 0 0
0 0 0
0 0 0
0 0 0
0 0 0
0 0 0
0 0 0
0 0 0
0 0 0
0 0 0
0 0 0
0 0 0
0 0 0
0 0 0
0 0 0
0 0 0
0 0 0
0 0 0
0 0 0
0 0 0
0 0 0
0 0 0
0 0 0
0 0 0
0 0 0
0 0 0
0 0 0
0 0 0
0 0 0
0 0 0
0 0 0
0 0 0
0 0 0
0 0 0
0 0 0
0 0 0
0 0 0
0 0 0
0 0 0
0 0 0
0 0 0
0 0 0
0 0 0
0 0 0
0 0 0
0 0 0
0 0 0
0 0 0
0 0 0
0 0 0
0 0 0
0 0 0
0 0 0
0 0 0
0 0 0
0 0 0
0 0 0
0 0 0
0 0 0
0 0 0
0 0 0
0 0 0
0 0 0
0 0 0
0 0 0
0 0 0
0 0 0
0 0 0
0 0 0
0 0 0
0 0 0
0 0 0
0 0 0
0 0 0
0 0 0
0 0 0
0 0 0
0 0 0
0 0 0
0 0 0
0 0 0
0 0 0
0 0 0
0 0 0
0 0 0
0 0 0
0 0 0
0 0 0
0 0 0
0 0 0
0 0 0
0 0 0
0 0 0
0 0 0
0 0 0
0 0 0
0 0 0
0 0 0
0 0 0
1.05468 0.0141791 0
1.05101 0.0263401 0
1.04425 0.0376395 0
1.03379 0.0484716 0
1.02176 0.0572796 0
1.01057 0.0609617 0
0.997025 0.059853 0
0.981394 0.0590077 0
0.96747 0.0571915 0
0.957128 0.0507376 0
0.949513 0.0400665 0
0.94343 0.027018 0
0.938531 0.0127877 0
1.0547 0.0071751 0
1.05308 0.0205533 0
1.04792 0.0324806 0
1.03945 0.0432656 0
1.02764 0.0531556 0
1.01619 0.0596927 0
1.00452 0.0606691 0
0.989419 0.059244 0
0.973696 0.0588846 0
0.961403 0.0548701 0
0.952487 0.0459233 0
0.945514 0.0339139 0
0.940061 0.0202236 0
0.936915 0.00638448 0
0.938281 -0.0129168 0
0.943183 -0.0266466 0
0.949175 -0.0398844 0
0.956884 -0.0508895 0
0.9674 -0.0574892 0
0.981299 -0.0589724 0
0.997643 -0.0601289 0
1.0112 -0.0611467 0
1.02166 -0.0573129 0
1.03368 -0.0483128 0
1.04479 -0.0381567 0
1.05194 -0.0267192 0
1.05458 -0.0143678 0
0.936959 -0.00638837 0
0.940577 -0.0200695 0
0.94631 -0.0333618 0
0.952917 -0.0456274 0
0.961624 -0.0549513 0
0.973778 -0.058958 0
0.989268 -0.0597755 0
1.00451 -0.0614461 0
1.01639 -0.060092 0
1.02796 -0.0533503 0
1.03967 -0.0434411 0
1.04873 -0.032754 0
1.05392 -0.0205502 0
1.05487 -0.00712478 0
1.05491 0.0121201 0
1.05238 0.0238466 0
1.0443 0.0354058 0
1.03242 0.0475571 0
1.02025 0.0580086 0
1.01284 0.0605665 0
0.999308 0.0568072 0
0.980433 0.0575936 0
0.966233 0.0580313 0
0.958309 0.0511085 0
0.952773 0.039361 0
0.946598 0.0259254 0
0.940906 0.0121035 0
1.05515 0.00505981 0
1.05394 0.0184602 0
1.04876 0.0300331 0
1.03875 0.0416572 0
1.02658 0.0531849 0
1.01635 0.0604359 0
1.00716 0.0593118 0
0.989941 0.0567056 0
0.972486 0.0586538 0
0.960907 0.0560149 0
0.95443 0.0456483 0
0.948952 0.0328649 0
0.94293 0.0195574 0
0.93987 0.00568106 0
0.940637 -0.0124368 0
0.946481 -0.0253485 0
0.952287 -0.0396914 0
0.957746 -0.0509427 0
0.966026 -0.0585186 0
0.980658 -0.0573453 0
0.999636 -0.0569722 0
1.01234 -0.0607635 0
1.02091 -0.0581495 0
1.03191 -0.0475695 0
1.04424 -0.035192 0
1.05168 -0.0233712 0
1.05552 -0.0115296 0
0.939832 -0.00577463 0
0.943227 -0.0194519 0
0.949827 -0.0322959 0
0.954622 -0.0454699 0
0.961613 -0.055596 0
0.972832 -0.0584196 0
0.99004 -0.057139 0
1.0066 -0.0600035 0
1.01671 -0.0606572 0
1.02612 -0.0535149 0
1.03862 -0.0415542 0
1.04804 -0.0302923 0
1.05364 -0.0182707 0
1.05502 -0.00501962 0
1.02539 0.00605494 0
1.02286 0.0108948 0
1.01951 0.016103 0
1.01607 0.0194639 0
1.01113 0.0221268 0
1.00469 0.0253724 0
1.00076 0.0245714 0
0.993305 0.0257573 0
0.989573 0.0222809 0
0.985431 0.0204841 0
0.980598 0.0168115 0
0.976978 0.0102889 0
0.978671 0.00544723 0
1.02573 0.0034328 0
1.02423 0.00786345 0
1.02135 0.0132005 0
1.01796 0.0173032 0
1.01459 0.0203088 0
1.00801 0.0245779 0
1.00286 0.0254058 0
0.997115 0.0260804 0
0.99189 0.0238768 0
0.987867 0.0211175 0
0.982507 0.0193337 0
0.980732 0.013617 0
0.977708 0.00841736 0
0.98156 0.00230957 0
0.978514 -0.0049379 0
0.977788 -0.0102739 0
0.980619 -0.0169423 0
0.985839 -0.0202815 0
0.989911 -0.0222125 0
0.993646 -0.0255451 0
1.00116 -0.0244399 0
1.00506 -0.0252265 0
1.01138 -0.0222809 0
1.01591 -0.0196886 0
1.01932 -0.0160393 0
1.02276 -0.0112159 0
1.02519 -0.00569825 0
0.981517 -0.00224774 0
0.977582 -0.00846381 0
0.980882 -0.0128028 0
0.983716 -0.0190356 0
0.989125 -0.0203948 0
0.992505 -0.0236419 0
0.998137 -0.0248539 0
1.00418 -0.0241271 0
1.00789 -0.0244295 0
1.01435 -0.0207794 0
1.01786 -0.0178611 0
1.02145 -0.0133428 0
1.02432 -0.00803182 0
1.02582 -0.00385804 0
1.02601 0.00332247 0
1.02404 0.0105207 0
1.01993 0.0149078 0
1.01619 0.0169203 0
1.01192 0.020051 0
1.00455 0.026651 0
1.00288 0.0231544 0
0.993453 0.0267074 0
0.992389 0.0215591 0
0.988455 0.0211119 0
0.981658 0.017284 0
0.977359 0.00889745 0
0.98109 0.00455832 0
1.02628 -4.30455e-06 0
1.02512 0.00700048 0
1.02201 0.0118507 0
1.0177 0.0153515 0
1.01586 0.0177216 0
1.00775 0.0250412 0
1.00312 0.0245677 0
0.997996 0.0267127 0
0.994203 0.0239421 0
0.990979 0.0207471 0
0.984138 0.020535 0
0.982553 0.0132293 0
0.979632 0.00750577 0
0.986287 0.00165269 0
0.980482 -0.00344083 0
0.978498 -0.00908765 0
0.981797 -0.0175536 0
0.989361 -0.0207535 0
0.992426 -0.0223314 0
0.993254 -0.0272373 0
1.00332 -0.0235555 0
1.00444 -0.0255746 0
1.01249 -0.0207112 0
1.01587 -0.0173401 0
1.0193 -0.0158385 0
1.02381 -0.0110265 0
1.02615 -0.00411508 0
0.986333 -0.0016381 0
0.978298 -0.00755953 0
0.983257 -0.011538 0
0.987154 -0.0194894 0
0.993233 -0.019794 0
0.99314 -0.0238147 0
0.999356 -0.0250804 0
1.00443 -0.022372 0
1.00727 -0.0237352 0
1.01593 -0.0182891 0
1.01776 -0.0158902 0
1.02179 -0.0135823 0
1.02518 -0.00675102 0
1.02621 -0.000722398 0
1.06755 -4.42301e-05 0
1.07691 -8.65604e-05 0
1.08655 -0.000129013 0
1.09792 -0.00015025 0
1.11165 -0.000169884 0
1.12848 -0.000231961 0
1.14938 -0.000277978 0
1.17563 -0.00044562 0
1.20942 -0.000427909 0
1.25408 -0.000633001 0
1.31426 -0.00108609 0
1.39987 -0.00103859 0
1.51801 -0.00794098 0
1.47766 0.0539233 0
1.06691 0.000255843 0
1.07303 -3.31762e-05 0
1.08162 -9.6731e-05 0
1.09199 -0.000144865 0
1.10446 -0.000165087 0
1.1196 -0.000193077 0
1.13825 -0.000253793 0
1.16156 -0.000303157 0
1.19137 -0.000407226 0
1.23 -0.000492318 0
1.28153 -0.000622396 0
1.3531 -0.000701708 0
1.45384 -0.00551664 0
1.61615 -0.00326036 0
2.09293 -0.0887512 0
0.301415 0.000406681 0
0.479858 0.000927907 0
0.598031 0.000232265 0
0.682285 -6.74583e-05 0
0.742876 6.74286e-05 0
0.786488 7.47063e-05 0
0.820686 7.91197e-05 0
0.846767 0.000106133 0
0.867704 7.81677e-05 0
0.884381 5.79917e-05 0
0.898295 5.83951e-05 0
0.909768 3.79279e-05 0
0.919483 2.54252e-05 0
0.927696 2.32404e-05 0
0.144374 -0.00153556 0
0.399992 -0.00165928 0
0.544559 0.000154595 0
0.643705 0.000503285 0
0.714814 0.000215009 0
0.766194 0.00016158 0
0.804637 0.00015006 0
0.834453 0.00011022 0
0.857805 4.86785e-05 0
0.87647 6.35293e-05 0
0.891667 4.73767e-05 0
0.904266 4.548e-05 0
0.914782 3.27178e-05 0
0.923723 1.81164e-05 0
0.93155 1.24201e-05 0
1.51576 -0.0358994 0
1.51997 0.00597383 0
1.39835 0.00149358 0
1.31442 0.00105645 0
1.25456 0.00095071 0
1.20965 0.000540286 0
1.17588 0.000483525 0
1.14959 0.000378284 0
1.12861 0.000284265 0
1.11174 0.000191463 0
1.09797 0.000168431 0
1.08661 0.000117724 0
1.07695 7.54135e-05 0
1.06762 5.25806e-05 0
2.07826 0.111381 0
1.60697 -0.00347424 0
1.45559 0.00326198 0
1.35347 0.001291 0
1.28147 0.00101407 0
1.23014 0.000704351 0
1.1915 0.000506415 0
1.1616 0.000399369 0
1.13832 0.000307625 0
1.11968 0.000227036 0
1.10452 0.000180862 0
1.09205 0.000143087 0
1.08165 8.94856e-05 0
1.07302 4.42024e-05 0
1.06684 -0.000208311 0
0.928041 -2.29518e-05 0
0.91985 -1.32688e-05 0
0.910094 -1.10137e-05 0
0.898691 -9.61256e-06 0
0.884928 -1.05597e-05 0
0.868257 -1.31905e-05 0
0.847449 -1.66815e-05 0
0.821533 -2.10123e-05 0
0.787853 -2.63037e-05 0
0.744226 -3.27557e-05 0
0.684483 -4.0604e-05 0
0.602158 -5.0012e-05 0
0.485036 -5.16265e-05 0
0.304565 -4.06362e-06 0
0.932493 -2.29146e-05 0
0.924057 -1.64647e-05 0
0.915101 -1.15396e-05 0
0.904629 -9.26999e-06 0
0.892143 -9.91654e-06 0
0.87703 -1.16655e-05 0
0.858441 -1.47822e-05 0
0.835283 -1.86942e-05 0
0.80579 -2.35289e-05 0
0.76758 -2.93555e-05 0
0.716594 -3.65748e-05 0
0.646682 -4.53938e-05 0
0.549212 -5.70209e-05 0
0.40385 -7.91256e-05 0
0.160416 -0.000278952 0
1.03445 -0.00118744 0
1.04347 -0.000813489 0
1.0301 -0.000246661 0
1.03868 -0.00155645 0
1.04477 0.00087038 0
0.94796 -5.98184e-05 0
0.958116 -7.03016e-05 0
0.943676 -7.96204e-05 0
0.951182 6.31425e-05 0
0.96837 1.53532e-05 0
1.04378 0.000763384 0
1.03457 0.00132108 0
1.04449 -0.00065552 0
1.03864 0.00154216 0
1.03 0.000206783 0
0.954695 4.9162e-05 0
0.944973 2.53098e-05 0
0.968209 -6.99802e-05 0
0.947857 1.39766e-05 0
0.946643 4.79789e-05 0
0.924003 0.188216 0
1.13628 0.226195 0
0.963841 0.361645 0
1.09042 0.0831278 0
0.704737 0.348739 0
0.894125 0.0715497 0
1.33562 0.289607 0
1.02515 0.126309 0
1.12649 0.533072 0
0.863681 0.565677 0
0.821569 0.12853 0
1.18976 0.10796 0
0.96007 0.0971671 0
0.50542 0.295053 0
1.01457 0.221397 0
1.40088 0.481952 0
1.09433 0.0362626 0
0.900669 0.0344921 0
0.618645 0.598704 0
0.84865 0.0541987 0
1.67735 0.375144 0
0.71836 0.141387 0
0.8178 0.223949 0
1.15248 0.0440547 0
1.27405 0.687538 0
1.05851 0.738997 0
1.11059 0.133118 0
1.04581 0.083315 0
1.11005 0.335599 0
1.28854 0.118473 0
1.07807 0.0191529 0
0.916453 0.0184547 0
0.982991 0.154052 0
0.887599 0.129322 0
0.939358 0.0673739 0
0.99593 0.091795 0
0.810678 0.739934 0
1.23759 0.402261 0
0.919572 0.261554 0
1.06623 0.053107 0
0.840506 0.390837 0
0.783372 0.0689618 0
1.0683 0.173355 0
0.940141 0.135766 0
0.293654 0.26663 0
0.426209 0.497292 0
0.926661 0.0961033 0
1.46555 0.181082 0
1.22899 0.214113 0
1.06261 0.11013 0
0.583093 0.151871 0
1.47717 0.617796 0
1.13176 0.092385 0
0.930483 0.0421472 0
1.1194 0.0284002 0
0.879728 0.0320179 0
1.02424 0.277294 0
0.979865 0.480866 0
1.21455 0.0636657 0
0.875593 0.0969032 0
1.16391 0.156835 0
1.17654 0.771773 0
1.10441 0.0190569 0
0.862722 0.157997 0
1.02254 0.166332 0
1.94824 0.235899 0
1.11376 0.058121 0
1.0205 0.090696 0
1.18118 0.282184 0
0.765377 0.471081 0
0.984614 0.111172 0
0.674772 0.769681 0
0.907085 0.821469 0
0.892752 0.016251 0
0.745285 0.215676 0
0.790165 0.304651 0
0.555235 0.397816 0
1.08362 0.430675 0
1.06271 0.243823 0
0.978981 0.0770308 0
0.729474 0.0617534 0
0.811263 0.0377915 0
0.959482 0.219557 0
0.78246 0.166405 0
0.959502 0.0777433 0
1.28138 0.479069 0
0.465421 0.630019 0
0.877816 0.0547835 0
1.07779 0.0362071 0
1.38338 0.697094 0
0.457341 0.179054 0
1.57522 0.56628 0
0.912272 0.0531073 0
1.18753 0.0315713 0
1.3697 0.102099 0
0.979641 0.593576 0
1.46874 0.335982 0
0.175093 0.198136 0
0.272122 0.433134 0
0.613723 0.261472 0
1.07027 0.010204 0
0.925479 0.0105027 0
1.2699 0.0545514 0
1.06841 0.0714635 0
1.0479 0.0604166 0
0.895735 0.327776 0
0.826996 0.0708268 0
1.05218 0.137559 0
1.02392 0.0722241 0
1.11889 0.174124 0
1.14064 0.885862 0
0.844888 0.0263481 0
1.09129 0.0571665 0
0.595368 0.816303 0
1.22078 0.148536 0
0.879027 0.21035 0
1.34382 0.191772 0
1.13822 0.022127 0
0.969592 0.306414 0
0.905117 0.0105948 0
1.08962 0.0115984 0
1.76728 0.483623 0
0.645979 0.0832271 0
0.767125 0.112702 0
0.889994 0.470023 0
1.8723 0.226047 0
0.921444 0.0756478 0
1.76105 0.428637 0
0.960111 0.17655 0
0.960476 0.704264 0
0.85454 0.922451 0
1.03657 0.349643 0
0.73728 0.621753 0
1.15368 0.654059 0
1.17192 0.0685307 0
1.14347 0.120594 0
1.33327 0.385067 0
1.00917 0.108899 0
0.146036 0.0899013 0
0.915424 0.00822867 0
1.08048 0.00827714 0
1.00716 0.0757103 0
1.56212 0.188538 0
1.35122 0.591166 0
0.915165 0.14804 0
1.08812 0.106676 0
0.943415 0.0858165 0
1.31851 0.81089 0
0.916507 0.0328844 0
0.342142 0.607649 0
1.06652 0.00651602 0
0.930979 0.00586559 0
0.858571 0.121404 0
1.23729 0.0996386 0
0.877646 0.0137033 0
1.17729 0.456525 0
1.08896 0.0247844 0
0.987988 0.187246 0
1.11986 0.0135787 0
0.942605 0.0525375 0
0.859454 0.26333 0
0.966892 0.127907 0
1.03702 0.107639 0
0.19262 0.349927 0
1.10789 0.268713 0
0.999781 0.131075 0
0.904074 0.097785 0
0.984295 0.255538 0
1.55559 0.480326 0
0.929089 0.0243445 0
1.25488 0.308263 0
0.992639 0.07402 0
0.770802 0.0342189 0
0.906067 0.022775 0
0.919448 0.119028 0
0.94244 0.109951 0
1.06019 0.038892 0
0.975905 0.0925029 0
1.64989 0.780204 0
1.0671 0.0242993 0
0.660844 0.185281 0
0.862694 0.0188572 0
0.95606 0.0630644 0
0.55336 0.527717 0
1.28613 0.23395 0
0.928722 0.0581184 0
1.43619 0.082695 0
1.16056 0.0193928 0
0.327688 0.147871 0
1.17114 0.36681 0
1.08215 0.1406 0
0.830997 0.178839 0
1.05104 0.202301 0
1.03515 0.063954 0
0.920542 0.220551 0
0.894126 0.0494939 0
1.1379 0.0687501 0
0.922675 0.405131 0
1.12822 0.0440828 0
1.17474 0.200061 0
1.11293 0.0787004 0
1.22291 0.569385 0
0.892097 0.169171 0
0.551783 0.0752891 0
1.15588 0.0921548 0
0.997736 0.406996 0
1.10824 0.0418802 0
0.806794 0.0956157 0
1.0724 0.0901615 0
1.09011 0.213849 0
0.539689 0.222665 0
0.771683 0.381837 0
0.863217 0.0728871 0
1.40112 0.246947 0
1.32345 0.0529284 0
1.04669 0.533511 0
1.26648 0.176974 0
0.928156 0.527403 0
1.22626 0.0294758 0
1.70934 0.338061 0
0.862471 0.0374764 0
1.06785 0.300001 0
1.49834 0.803342 0
1.11151 0.10415 0
0.969985 0.0680441 0
0.653077 0.489986 0
1.13461 0.146195 0
0.867033 0.65356 0
1.26615 0.906861 0
0.842888 0.0977359 0
0.939779 0.159573 0
0.695184 0.267348 0
1.05699 0.624406 0
1.05243 0.0494026 0
0.408895 0.351557 0
0.957778 0.150731 0
0.608284 0.684071 0
0.966956 0.0854427 0
0.959473 0.0867772 0
0.968618 0.095174 0
0.3526 0.31618 0
0.426025 0.257592 0
0.384107 0.21801 0
0.969419 0.0782513 0
0.9778 0.084597 0
0.798131 0.0205738 0
0.81459 0.0181954 0
1.08569 0.0364671 0
1.08463 0.0456079 0
1.09349 0.0466193 0
1.58905 0.0923396 0
1.52206 0.119536 0
0.870617 0.357536 0
0.843217 0.322132 0
0.811201 0.347319 0
0.498566 0.445887 0
0.484921 0.3829 0
0.41213 0.422982 0
0.877399 0.513841 0
0.829188 0.475568 0
0.809155 0.52001 0
1.48082 0.0541425 0
1.52419 0.115178 0
0.87616 0.142601 0
0.877049 0.164495 0
0.888522 0.148159 0
0.896157 0.0257651 0
0.886255 0.0234181 0
0.890781 0.033615 0
1.09182 0.0696872 0
1.08007 0.0656935 0
1.07851 0.0771816 0
0.778152 0.0159563 0
0.792424 0.0361871 0
0.829244 0.0312594 0
0.832398 0.014495 0
1.10168 0.00893607 0
1.10864 0.00985287 0
0.888253 0.00860015 0
0.895087 0.00780923 0
1.05339 0.0952674 0
1.06829 0.100134 0
1.05774 0.0873072 0
0.878178 0.0430014 0
0.886353 0.0520431 0
0.886369 0.041366 0
0.897206 0.0416078 0
1.11164 0.0232993 0
1.10709 0.029968 0
1.11402 0.0355044 0
1.76872 0.413118 0
1.88798 0.347319 0
1.8026 0.322122 0
1.05942 0.153952 0
1.03907 0.152448 0
1.04443 0.171853 0
0.936439 0.0345564 0
0.940405 0.0420898 0
1.07147 0.12398 0
1.08655 0.122819 0
1.075 0.109198 0
1.06796 0.0616714 0
1.07776 0.0553631 0
0.655786 0.310322 0
0.583314 0.321759 0
0.638442 0.375278 0
1.04233 0.0951941 0
1.04916 0.109781 0
0.460747 0.322075 0
0.47534 0.239772 0
0.896172 0.112064 0
0.890621 0.0981079 0
0.880186 0.113247 0
0.84495 0.0129477 0
1.18231 0.0147774 0
1.1992 0.0168446 0
1.51977 0.187834 0
1.46055 0.121111 0
1.01882 0.247181 0
1.04556 0.261056 0
1.03671 0.2338 0
0.525138 0.347915 0
0.564044 0.277355 0
0.85064 0.21864 0
0.853719 0.196476 0
0.824168 0.199283 0
1.13379 0.0102887 0
1.14436 0.0115112 0
0.751401 0.539664 0
0.807579 0.59642 0
1.12439 0.00703412 0
1.12865 0.017521 0
0.968194 0.903412 0
0.870943 0.928524 0
1.07279 0.0449403 0
0.904392 0.158146 0
0.900599 0.139811 0
0.704231 0.0343088 0
0.733096 0.0294991 0
1.23429 0.73305 0
1.24397 0.801499 0
1.3062 0.748169 0
1.20583 0.0309865 0
1.21824 0.013667 0
0.728387 0.179115 0
0.764785 0.189016 0
0.751122 0.156628 0
1.24203 0.256525 0
1.27289 0.271646 0
1.2552 0.224081 0
1.21489 0.295659 0
1.2086 0.249556 0
0.783153 0.222564 0
0.762548 0.260945 0
0.804365 0.259979 0
1.15517 0.494446 0
1.17189 0.553268 0
1.19815 0.508116 0
0.98987 0.441862 0
0.960172 0.408943 0
0.947443 0.442501 0
0.673098 0.850714 0
0.592183 0.842025 0
1.22602 0.470568 0
1.25692 0.52415 0
0.84775 0.167832 0
0.868557 0.183474 0
0.874573 0.295569 0
0.8295 0.28458 0
1.60736 0.261539 0
1.52626 0.262499 0
1.53398 0.351361 0
1.21103 0.674708 0
1.17047 0.710996 0
1.05842 0.123435 0
1.06651 0.139918 0
0.771819 0.683535 0
0.716573 0.698388 0
0.756286 0.758191 0
0.681939 0.116615 0
0.649058 0.134265 0
0.691406 0.161302 0
1.11618 0.755184 0
1.11382 0.697837 0
0.941865 0.284603 0
0.97747 0.279132 0
0.952627 0.261429 0
1.20385 0.0871779 0
1.1918 0.0669252 0
1.18121 0.0865272 0
0.75195 0.32687 0
0.74373 0.291218 0
0.697789 0.30654 0
1.1491 0.31142 0
1.1422 0.277824 0
1.11043 0.299842 0
0.907027 0.43563 0
0.934271 0.478385 0
0.720469 0.0990515 0
0.691656 0.0711888 0
0.797217 0.195897 0
0.437231 0.733314 0
0.364285 0.706646 0
1.1009 0.0389296 0
1.09984 0.0281939 0
1.02436 0.144707 0
1.03765 0.132781 0
0.970467 0.237286 0
0.942096 0.239853 0
1.00139 0.161834 0
1.00934 0.147583 0
0.99201 0.142168 0
0.962495 0.111459 0
0.976817 0.119518 0
0.971513 0.105073 0
0.88523 0.0831918 0
0.89802 0.0847371 0
1.10175 0.0580117 0
1.10141 0.0666684 0
1.1139 0.0681259 0
1.21203 0.105113 0
1.22581 0.0804377 0
1.4721 0.253599 0
1.36585 0.430668 0
1.31111 0.432687 0
1.33885 0.485376 0
0.838327 0.0617946 0
0.84624 0.0725756 0
0.85554 0.06403 0
0.712916 0.483727 0
0.727654 0.409073 0
0.679942 0.412595 0
1.15619 0.251721 0
1.18044 0.237331 0
1.1565 0.214093 0
0.867473 0.108657 0
0.873496 0.126405 0
1.20006 0.207653 0
0.751202 0.046063 0
0.756049 0.018302 0
1.17935 0.13318 0
1.19111 0.154756 0
1.20455 0.126327 0
1.64892 0.162806 0
1.86782 0.0385514 0
0.833857 0.0848868 0
0.853379 0.0843427 0
0.935918 0.0479389 0
0.945719 0.0467686 0
1.0125 0.129737 0
0.824339 0.152687 0
0.840929 0.145311 0
1.12376 0.247578 0
0.623809 0.171899 0
0.614869 0.113841 0
0.935504 0.02596 0
0.928314 0.0333889 0
0.806638 0.0706578 0
0.817908 0.0551276 0
0.797457 0.0517535 0
0.979365 0.383914 0
0.945423 0.38319 0
1.10275 0.478285 0
1.06813 0.478986 0
1.08617 0.535493 0
0.776161 0.0520395 0
1.03481 0.183766 0
1.01968 0.191207 0
1.03346 0.213119 0
1.0918 0.0302325 0
1.08362 0.0309286 0
0.722269 0.240333 0
1.54808 0.662642 0
1.49822 0.706939 0
1.57122 0.795667 0
0.680633 0.614753 0
0.687989 0.557597 0
0.6362 0.541531 0
0.951924 0.103469 0
0.953463 0.119833 0
0.922527 0.0216224 0
0.925843 0.0177933 0
0.920721 0.0141834 0
0.216288 0.503345 0
0.165956 0.454305 0
1.47204 0.485335 0
1.49029 0.392589 0
1.44001 0.408045 0
1.03397 0.0782031 0
1.02307 0.081042 0
1.03321 0.0884153 0
1.00124 0.357865 0
1.0001 0.32931 0
0.967006 0.332529 0
0.613793 0.641495 0
0.553249 0.621918 0
0.539572 0.664364 0
1.09878 0.118764 0
1.09628 0.137641 0
0.682756 0.658495 0
0.635807 0.733546 0
0.905759 0.0443004 0
0.913778 0.042479 0
0.909046 0.0337724 0
0.885537 0.188065 0
0.965256 0.0729658 0
0.962574 0.0661943 0
0.957461 0.0701686 0
0.794846 0.122809 0
0.772211 0.139703 0
0.803479 0.14561 0
1.00511 0.784041 0
1.01959 0.901188 0
1.0835 0.801971 0
1.1439 0.187252 0
1.12731 0.197623 0
1.00695 0.177734 0
0.999745 0.20399 0
1.00833 0.0924275 0
1.0132 0.0832235 0
1.00265 0.083507 0
1.0315 0.116944 0
1.02275 0.109731 0
1.01631 0.117582 0
0.744153 0.125468 0
0.745774 0.0893027 0
1.01079 0.5075 0
1.03587 0.459346 0
0.879729 0.072761 0
0.868428 0.085294 0
1.41349 0.133776 0
1.362 0.146313 0
1.39687 0.188168 0
1.16931 0.0390612 0
1.17345 0.0249725 0
1.15727 0.0321786 0
1.36822 0.750936 0
1.32866 0.694792 0
1.22139 0.0472501 0
1.20098 0.0462015 0
1.73921 0.450261 0
1.77341 0.428252 0
0.880835 0.00652487 0
0.885534 0.0150772 0
1.02781 0.0988372 0
0.807093 0.428432 0
0.86158 0.429603 0
1.07052 0.0802235 0
1.05757 0.0787229 0
1.06075 0.187639 0
0.767436 0.422911 0
0.737001 0.367731 0
1.11187 0.0166747 0
1.11591 0.00634495 0
0.705058 0.204704 0
1.1013 0.08157 0
0.859491 0.13924 0
0.841441 0.125558 0
1.04351 0.12134 0
0.599156 0.448391 0
0.935437 0.0906439 0
0.932091 0.0816142 0
0.92343 0.0854094 0
0.830858 0.0474834 0
1.18107 0.0508392 0
1.14164 0.167401 0
1.17032 0.176939 0
1.04477 0.289059 0