<?xml version="1.0"?>
<VTKFile type="UnstructuredGrid">
  <UnstructuredGrid>
  <Piece NumberOfPoints="4352"  NumberOfCells="2048">
    <Points>
      <DataArray type="Float64" NumberOfComponents="3" format="ascii">
0 0 0.1
0.2 0 0.1
0.5 0 0.1
0.8 0 0.1
1 0 0.1
0 0.2 0.1
0.2 0.2 0.1
0.5 0.2 0.1
0.8 0.2 0.1
1 0.2 0.1
0 0.5 0.1
0.2 0.5 0.1
0.8 0.5 0.1
1 0.5 0.1
0 0.8 0.1
0.2 0.8 0.1
0.5 0.8 0.1
0.8 0.8 0.1
1 0.8 0.1
0 1 0.1
0.2 1 0.1
0.5 1 0.1
0.8 1 0.1
1 1 0.1
0.025 0 0.1
0.05 0 0.1
0.075 0 0.1
0.1 0 0.1
0.125 0 0.1
0.15 0 0.1
0.175 0 0.1
0.0125 0 0.1
0.0375 0 0.1
0.0625 0 0.1
0.0875 0 0.1
0.1125 0 0.1
0.1375 0 0.1
0.1625 0 0.1
0.1875 0 0.1
0.225 0 0.1
0.25 0 0.1
0.275 0 0.1
0.3 0 0.1
0.325 0 0.1
0.35 0 0.1
0.375 0 0.1
0.4 0 0.1
0.425 0 0.1
0.45 0 0.1
0.475 0 0.1
0.2125 0 0.1
0.2375 0 0.1
0.2625 0 0.1
0.2875 0 0.1
0.3125 0 0.1
0.3375 0 0.1
0.3625 0 0.1
0.3875 0 0.1
0.4125 0 0.1
0.4375 0 0.1
0.4625 0 0.1
0.4875 0 0.1
0.525 0 0.1
0.55 0 0.1
0.575 0 0.1
0.6 0 0.1
0.625 0 0.1
0.65 0 0.1
0.675 0 0.1
0.7 0 0.1
0.725 0 0.1
0.75 0 0.1
0.775 0 0.1
0.5125 0 0.1
0.5375 0 0.1
0.5625 0 0.1
0.5875 0 0.1
0.6125 0 0.1
0.6375 0 0.1
0.6625 0 0.1
0.6875 0 0.1
0.7125 0 0.1
0.7375 0 0.1
0.7625 0 0.1
0.7875 0 0.1
0.825 0 0.1
0.85 0 0.1
0.875 0 0.1
0.9 0 0.1
0.925 0 0.1
0.95 0 0.1
0.975 0 0.1
0.8125 0 0.1
0.8375 0 0.1
0.8625 0 0.1
0.8875 0 0.1
0.9125 0 0.1
0.9375 0 0.1
0.9625 0 0.1
0.9875 0 0.1
0 0.025 0.1
0 0.05 0.1
0 0.075 0.1
0 0.1 0.1
0 0.125 0.1
0 0.15 0.1
0 0.175 0.1
0 0.0125 0.1
0 0.0375 0.1
0 0.0625 0.1
0 0.0875 0.1
0 0.1125 0.1
0 0.1375 0.1
0 0.1625 0.1
0 0.1875 0.1
0.2 0.025 0.1
0.2 0.05 0.1
0.2 0.075 0.1
0.2 0.1 0.1
0.2 0.125 0.1
0.2 0.15 0.1
0.2 0.175 0.1
0.2 0.0125 0.1
0.2 0.0375 0.1
0.2 0.0625 0.1
0.2 0.0875 0.1
0.2 0.1125 0.1
0.2 0.1375 0.1
0.2 0.1625 0.1
0.2 0.1875 0.1
0.5 0.025 0.1
0.5 0.05 0.1
0.5 0.075 0.1
0.5 0.1 0.1
0.5 0.125 0.1
0.5 0.15 0.1
0.5 0.175 0.1
0.5 0.0125 0.1
0.5 0.0375 0.1
0.5 0.0625 0.1
0.5 0.0875 0.1
0.5 0.1125 0.1
0.5 0.1375 0.1
0.5 0.1625 0.1
0.5 0.1875 0.1
0.8 0.025 0.1
0.8 0.05 0.1
0.8 0.075 0.1
0.8 0.1 0.1
0.8 0.125 0.1
0.8 0.15 0.1
0.8 0.175 0.1
0.8 0.0125 0.1
0.8 0.0375 0.1
0.8 0.0625 0.1
0.8 0.0875 0.1
0.8 0.1125 0.1
0.8 0.1375 0.1
0.8 0.1625 0.1
0.8 0.1875 0.1
1 0.025 0.1
1 0.05 0.1
1 0.075 0.1
1 0.1 0.1
1 0.125 0.1
1 0.15 0.1
1 0.175 0.1
1 0.0125 0.1
1 0.0375 0.1
1 0.0625 0.1
1 0.0875 0.1
1 0.1125 0.1
1 0.1375 0.1
1 0.1625 0.1
1 0.1875 0.1
0.025 0.2 0.1
0.05 0.2 0.1
0.075 0.2 0.1
0.1 0.2 0.1
0.125 0.2 0.1
0.15 0.2 0.1
0.175 0.2 0.1
0.0125 0.2 0.1
0.0375 0.2 0.1
0.0625 0.2 0.1
0.0875 0.2 0.1
0.1125 0.2 0.1
0.1375 0.2 0.1
0.1625 0.2 0.1
0.1875 0.2 0.1
0.225 0.2 0.1
0.25 0.2 0.1
0.275 0.2 0.1
0.3 0.2 0.1
0.325 0.2 0.1
0.35 0.2 0.1
0.375 0.2 0.1
0.4 0.2 0.1
0.425 0.2 0.1
0.45 0.2 0.1
0.475 0.2 0.1
0.2125 0.2 0.1
0.2375 0.2 0.1
0.2625 0.2 0.1
0.2875 0.2 0.1
0.3125 0.2 0.1
0.3375 0.2 0.1
0.3625 0.2 0.1
0.3875 0.2 0.1
0.4125 0.2 0.1
0.4375 0.2 0.1
0.4625 0.2 0.1
0.4875 0.2 0.1
0.525 0.2 0.1
0.55 0.2 0.1
0.575 0.2 0.1
0.6 0.2 0.1
0.625 0.2 0.1
0.65 0.2 0.1
0.675 0.2 0.1
0.7 0.2 0.1
0.725 0.2 0.1
0.75 0.2 0.1
0.775 0.2 0.1
0.5125 0.2 0.1
0.5375 0.2 0.1
0.5625 0.2 0.1
0.5875 0.2 0.1
0.6125 0.2 0.1
0.6375 0.2 0.1
0.6625 0.2 0.1
0.6875 0.2 0.1
0.7125 0.2 0.1
0.7375 0.2 0.1
0.7625 0.2 0.1
0.7875 0.2 0.1
0.825 0.2 0.1
0.85 0.2 0.1
0.875 0.2 0.1
0.9 0.2 0.1
0.925 0.2 0.1
0.95 0.2 0.1
0.975 0.2 0.1
0.8125 0.2 0.1
0.8375 0.2 0.1
0.8625 0.2 0.1
0.8875 0.2 0.1
0.9125 0.2 0.1
0.9375 0.2 0.1
0.9625 0.2 0.1
0.9875 0.2 0.1
0 0.225 0.1
0 0.25 0.1
0 0.275 0.1
0 0.3 0.1
0 0.325 0.1
0 0.35 0.1
0 0.375 0.1
0 0.4 0.1
0 0.425 0.1
0 0.45 0.1
0 0.475 0.1
0 0.2125 0.1
0 0.2375 0.1
0 0.2625 0.1
0 0.2875 0.1
0 0.3125 0.1
0 0.3375 0.1
0 0.3625 0.1
0 0.3875 0.1
0 0.4125 0.1
0 0.4375 0.1
0 0.4625 0.1
0 0.4875 0.1
0.2 0.225 0.1
0.2 0.25 0.1
0.2 0.275 0.1
0.2 0.3 0.1
0.2 0.325 0.1
0.2 0.35 0.1
0.2 0.375 0.1
0.2 0.4 0.1
0.2 0.425 0.1
0.2 0.45 0.1
0.2 0.475 0.1
0.2 0.2125 0.1
0.2 0.2375 0.1
0.2 0.2625 0.1
0.2 0.2875 0.1
0.2 0.3125 0.1
0.2 0.3375 0.1
0.2 0.3625 0.1
0.2 0.3875 0.1
0.2 0.4125 0.1
0.2 0.4375 0.1
0.2 0.4625 0.1
0.2 0.4875 0.1
0.8 0.225 0.1
0.8 0.25 0.1
0.8 0.275 0.1
0.8 0.3 0.1
0.8 0.325 0.1
0.8 0.35 0.1
0.8 0.375 0.1
0.8 0.4 0.1
0.8 0.425 0.1
0.8 0.45 0.1
0.8 0.475 0.1
0.8 0.2125 0.1
0.8 0.2375 0.1
0.8 0.2625 0.1
0.8 0.2875 0.1
0.8 0.3125 0.1
0.8 0.3375 0.1
0.8 0.3625 0.1
0.8 0.3875 0.1
0.8 0.4125 0.1
0.8 0.4375 0.1
0.8 0.4625 0.1
0.8 0.4875 0.1
1 0.225 0.1
1 0.25 0.1
1 0.275 0.1
1 0.3 0.1
1 0.325 0.1
1 0.35 0.1
1 0.375 0.1
1 0.4 0.1
1 0.425 0.1
1 0.45 0.1
1 0.475 0.1
1 0.2125 0.1
1 0.2375 0.1
1 0.2625 0.1
1 0.2875 0.1
1 0.3125 0.1
1 0.3375 0.1
1 0.3625 0.1
1 0.3875 0.1
1 0.4125 0.1
1 0.4375 0.1
1 0.4625 0.1
1 0.4875 0.1
0.025 0.5 0.1
0.05 0.5 0.1
0.075 0.5 0.1
0.1 0.5 0.1
0.125 0.5 0.1
0.15 0.5 0.1
0.175 0.5 0.1
0.0125 0.5 0.1
0.0375 0.5 0.1
0.0625 0.5 0.1
0.0875 0.5 0.1
0.1125 0.5 0.1
0.1375 0.5 0.1
0.1625 0.5 0.1
0.1875 0.5 0.1
0.825 0.5 0.1
0.85 0.5 0.1
0.875 0.5 0.1
0.9 0.5 0.1
0.925 0.5 0.1
0.95 0.5 0.1
0.975 0.5 0.1
0.8125 0.5 0.1
0.8375 0.5 0.1
0.8625 0.5 0.1
0.8875 0.5 0.1
0.9125 0.5 0.1
0.9375 0.5 0.1
0.9625 0.5 0.1
0.9875 0.5 0.1
0 0.525 0.1
0 0.55 0.1
0 0.575 0.1
0 0.6 0.1
0 0.625 0.1
0 0.65 0.1
0 0.675 0.1
0 0.7 0.1
0 0.725 0.1
0 0.75 0.1
0 0.775 0.1
0 0.5125 0.1
0 0.5375 0.1
0 0.5625 0.1
0 0.5875 0.1
0 0.6125 0.1
0 0.6375 0.1
0 0.6625 0.1
0 0.6875 0.1
0 0.7125 0.1
0 0.7375 0.1
0 0.7625 0.1
0 0.7875 0.1
0.2 0.525 0.1
0.2 0.55 0.1
0.2 0.575 0.1
0.2 0.6 0.1
0.2 0.625 0.1
0.2 0.65 0.1
0.2 0.675 0.1
0.2 0.7 0.1
0.2 0.725 0.1
0.2 0.75 0.1
0.2 0.775 0.1
0.2 0.5125 0.1
0.2 0.5375 0.1
0.2 0.5625 0.1
0.2 0.5875 0.1
0.2 0.6125 0.1
0.2 0.6375 0.1
0.2 0.6625 0.1
0.2 0.6875 0.1
0.2 0.7125 0.1
0.2 0.7375 0.1
0.2 0.7625 0.1
0.2 0.7875 0.1
0.8 0.525 0.1
0.8 0.55 0.1
0.8 0.575 0.1
0.8 0.6 0.1
0.8 0.625 0.1
0.8 0.65 0.1
0.8 0.675 0.1
0.8 0.7 0.1
0.8 0.725 0.1
0.8 0.75 0.1
0.8 0.775 0.1
0.8 0.5125 0.1
0.8 0.5375 0.1
0.8 0.5625 0.1
0.8 0.5875 0.1
0.8 0.6125 0.1
0.8 0.6375 0.1
0.8 0.6625 0.1
0.8 0.6875 0.1
0.8 0.7125 0.1
0.8 0.7375 0.1
0.8 0.7625 0.1
0.8 0.7875 0.1
1 0.525 0.1
1 0.55 0.1
1 0.575 0.1
1 0.6 0.1
1 0.625 0.1
1 0.65 0.1
1 0.675 0.1
1 0.7 0.1
1 0.725 0.1
1 0.75 0.1
1 0.775 0.1
1 0.5125 0.1
1 0.5375 0.1
1 0.5625 0.1
1 0.5875 0.1
1 0.6125 0.1
1 0.6375 0.1
1 0.6625 0.1
1 0.6875 0.1
1 0.7125 0.1
1 0.7375 0.1
1 0.7625 0.1
1 0.7875 0.1
0.025 0.8 0.1
0.05 0.8 0.1
0.075 0.8 0.1
0.1 0.8 0.1
0.125 0.8 0.1
0.15 0.8 0.1
0.175 0.8 0.1
0.0125 0.8 0.1
0.0375 0.8 0.1
0.0625 0.8 0.1
0.0875 0.8 0.1
0.1125 0.8 0.1
0.1375 0.8 0.1
0.1625 0.8 0.1
0.1875 0.8 0.1
0.225 0.8 0.1
0.25 0.8 0.1
0.275 0.8 0.1
0.3 0.8 0.1
0.325 0.8 0.1
0.35 0.8 0.1
0.375 0.8 0.1
0.4 0.8 0.1
0.425 0.8 0.1
0.45 0.8 0.1
0.475 0.8 0.1
0.2125 0.8 0.1
0.2375 0.8 0.1
0.2625 0.8 0.1
0.2875 0.8 0.1
0.3125 0.8 0.1
0.3375 0.8 0.1
0.3625 0.8 0.1
0.3875 0.8 0.1
0.4125 0.8 0.1
0.4375 0.8 0.1
0.4625 0.8 0.1
0.4875 0.8 0.1
0.525 0.8 0.1
0.55 0.8 0.1
0.575 0.8 0.1
0.6 0.8 0.1
0.625 0.8 0.1
0.65 0.8 0.1
0.675 0.8 0.1
0.7 0.8 0.1
0.725 0.8 0.1
0.75 0.8 0.1
0.775 0.8 0.1
0.5125 0.8 0.1
0.5375 0.8 0.1
0.5625 0.8 0.1
0.5875 0.8 0.1
0.6125 0.8 0.1
0.6375 0.8 0.1
0.6625 0.8 0.1
0.6875 0.8 0.1
0.7125 0.8 0.1
0.7375 0.8 0.1
0.7625 0.8 0.1
0.7875 0.8 0.1
0.825 0.8 0.1
0.85 0.8 0.1
0.875 0.8 0.1
0.9 0.8 0.1
0.925 0.8 0.1
0.95 0.8 0.1
0.975 0.8 0.1
0.8125 0.8 0.1
0.8375 0.8 0.1
0.8625 0.8 0.1
0.8875 0.8 0.1
0.9125 0.8 0.1
0.9375 0.8 0.1
0.9625 0.8 0.1
0.9875 0.8 0.1
0 0.825 0.1
0 0.85 0.1
0 0.875 0.1
0 0.9 0.1
0 0.925 0.1
0 0.95 0.1
0 0.975 0.1
0 0.8125 0.1
0 0.8375 0.1
0 0.8625 0.1
0 0.8875 0.1
0 0.9125 0.1
0 0.9375 0.1
0 0.9625 0.1
0 0.9875 0.1
0.2 0.825 0.1
0.2 0.85 0.1
0.2 0.875 0.1
0.2 0.9 0.1
0.2 0.925 0.1
0.2 0.95 0.1
0.2 0.975 0.1
0.2 0.8125 0.1
0.2 0.8375 0.1
0.2 0.8625 0.1
0.2 0.8875 0.1
0.2 0.9125 0.1
0.2 0.9375 0.1
0.2 0.9625 0.1
0.2 0.9875 0.1
0.5 0.825 0.1
0.5 0.85 0.1
0.5 0.875 0.1
0.5 0.9 0.1
0.5 0.925 0.1
0.5 0.95 0.1
0.5 0.975 0.1
0.5 0.8125 0.1
0.5 0.8375 0.1
0.5 0.8625 0.1
0.5 0.8875 0.1
0.5 0.9125 0.1
0.5 0.9375 0.1
0.5 0.9625 0.1
0.5 0.9875 0.1
0.8 0.825 0.1
0.8 0.85 0.1
0.8 0.875 0.1
0.8 0.9 0.1
0.8 0.925 0.1
0.8 0.95 0.1
0.8 0.975 0.1
0.8 0.8125 0.1
0.8 0.8375 0.1
0.8 0.8625 0.1
0.8 0.8875 0.1
0.8 0.9125 0.1
0.8 0.9375 0.1
0.8 0.9625 0.1
0.8 0.9875 0.1
1 0.825 0.1
1 0.85 0.1
1 0.875 0.1
1 0.9 0.1
1 0.925 0.1
1 0.95 0.1
1 0.975 0.1
1 0.8125 0.1
1 0.8375 0.1
1 0.8625 0.1
1 0.8875 0.1
1 0.9125 0.1
1 0.9375 0.1
1 0.9625 0.1
1 0.9875 0.1
0.025 1 0.1
0.05 1 0.1
0.075 1 0.1
0.1 1 0.1
0.125 1 0.1
0.15 1 0.1
0.175 1 0.1
0.0125 1 0.1
0.0375 1 0.1
0.0625 1 0.1
0.0875 1 0.1
0.1125 1 0.1
0.1375 1 0.1
0.1625 1 0.1
0.1875 1 0.1
0.225 1 0.1
0.25 1 0.1
0.275 1 0.1
0.3 1 0.1
0.325 1 0.1
0.35 1 0.1
0.375 1 0.1
0.4 1 0.1
0.425 1 0.1
0.45 1 0.1
0.475 1 0.1
0.2125 1 0.1
0.2375 1 0.1
0.2625 1 0.1
0.2875 1 0.1
0.3125 1 0.1
0.3375 1 0.1
0.3625 1 0.1
0.3875 1 0.1
0.4125 1 0.1
0.4375 1 0.1
0.4625 1 0.1
0.4875 1 0.1
0.525 1 0.1
0.55 1 0.1
0.575 1 0.1
0.6 1 0.1
0.625 1 0.1
0.65 1 0.1
0.675 1 0.1
0.7 1 0.1
0.725 1 0.1
0.75 1 0.1
0.775 1 0.1
0.5125 1 0.1
0.5375 1 0.1
0.5625 1 0.1
0.5875 1 0.1
0.6125 1 0.1
0.6375 1 0.1
0.6625 1 0.1
0.6875 1 0.1
0.7125 1 0.1
0.7375 1 0.1
0.7625 1 0.1
0.7875 1 0.1
0.825 1 0.1
0.85 1 0.1
0.875 1 0.1
0.9 1 0.1
0.925 1 0.1
0.95 1 0.1
0.975 1 0.1
0.8125 1 0.1
0.8375 1 0.1
0.8625 1 0.1
0.8875 1 0.1
0.9125 1 0.1
0.9375 1 0.1
0.9625 1 0.1
0.9875 1 0.1
0.025 0.025 0.1
0.025 0.05 0.1
0.025 0.075 0.1
0.025 0.1 0.1
0.025 0.125 0.1
0.025 0.15 0.1
0.025 0.175 0.1
0.05 0.025 0.1
0.05 0.05 0.1
0.05 0.075 0.1
0.05 0.1 0.1
0.05 0.125 0.1
0.05 0.15 0.1
0.05 0.175 0.1
0.075 0.025 0.1
0.075 0.05 0.1
0.075 0.075 0.1
0.075 0.1 0.1
0.075 0.125 0.1
0.075 0.15 0.1
0.075 0.175 0.1
0.1 0.025 0.1
0.1 0.05 0.1
0.1 0.075 0.1
0.1 0.1 0.1
0.1 0.125 0.1
0.1 0.15 0.1
0.1 0.175 0.1
0.125 0.025 0.1
0.125 0.05 0.1
0.125 0.075 0.1
0.125 0.1 0.1
0.125 0.125 0.1
0.125 0.15 0.1
0.125 0.175 0.1
0.15 0.025 0.1
0.15 0.05 0.1
0.15 0.075 0.1
0.15 0.1 0.1
0.15 0.125 0.1
0.15 0.15 0.1
0.15 0.175 0.1
[...]
    <PointData>
      <DataArray type="Float64" NumberOfComponents="3" Name="Velocity" format="ascii">
0 0 0
0 0 0
0 0 0
0 0 0
0 0 0
0 0 0
-0.026646 0.0207094 0
-0.0621155 -1.25294e-05 0
-0.026619 -0.0209828 0
0 0 0
0 0 0
-0.0666973 0.105112 0
-0.071062 -0.108991 0
0 0 0
0 0 0
-0.118844 0.229283 0
-0.0360563 0.00768906 0
-0.125187 -0.234531 0
0 0 0
0 0 0
1 0 0
1 0 0
1 0 0
0 0 0
0 0 0
0 0 0
0 0 0
0 0 0
0 0 0
0 0 0
0 0 0
0 0 0
0 0 0
0 0 0
0 0 0
0 0 0
0 0 0
0 0 0
0 0 0
0 0 0
0 0 0
0 0 0
0 0 0
0 0 0
0 0 0
0 0 0
0 0 0
0 0 0
0 0 0
0 0 0
0 0 0
0 0 0
0 0 0
0 0 0
0 0 0
0 0 0
0 0 0
0 0 0
0 0 0
0 0 0
0 0 0
0 0 0
0 0 0
0 0 0
0 0 0
0 0 0
0 0 0
0 0 0
0 0 0
0 0 0
0 0 0
0 0 0
0 0 0
0 0 0
0 0 0
0 0 0
0 0 0
0 0 0
0 0 0
0 0 0
0 0 0
0 0 0
0 0 0
0 0 0
0 0 0
0 0 0
0 0 0
0 0 0
0 0 0
0 0 0
0 0 0
0 0 0
0 0 0
0 0 0
0 0 0
0 0 0
0 0 0
0 0 0
0 0 0
0 0 0
0 0 0
0 0 0
0 0 0
0 0 0
0 0 0
0 0 0
0 0 0
0 0 0
0 0 0
0 0 0
0 0 0
0 0 0
0 0 0
0 0 0
0 0 0
-0.00613601 0.00072429 0
-0.0108319 0.00230565 0
-0.0148555 0.00418244 0
-0.0176695 0.00492697 0
-0.0177934 0.0139511 0
-0.0213066 0.0166853 0
-0.0242859 0.0188887 0
-0.00292186 0.000242079 0
-0.00856297 0.00143971 0
-0.0128202 0.0032564 0
-0.0163232 0.00468465 0
-0.0172998 0.0102238 0
-0.0195213 0.015541 0
-0.0228423 0.0178724 0
-0.0255199 0.0198632 0
-0.0141687 -1.15604e-05 0
-0.0250662 -1.1277e-05 0
-0.034035 -1.18147e-05 0
-0.0419534 1.32987e-05 0
-0.0476271 -9.03909e-05 0
-0.0519722 -0.000108121 0
-0.056777 -8.12811e-05 0
-0.00720151 -1.88031e-06 0
-0.0199224 -8.7935e-06 0
-0.0297303 -1.44879e-05 0
-0.0380696 -7.77003e-06 0
-0.0449938 -5.11682e-05 0
-0.0497963 -0.000103295 0
-0.0543162 -9.91729e-05 0
-0.0593802 -5.18298e-05 0
-0.00607653 -0.000659149 0
-0.0106725 -0.00213339 0
-0.0145616 -0.00402869 0
-0.0166014 -0.00472304 0
-0.0170955 -0.0137412 0
-0.0210532 -0.0164409 0
-0.0242843 -0.0187675 0
-0.00289953 -0.00020818 0
-0.00848824 -0.00130177 0
-0.0126994 -0.00304553 0
-0.0161476 -0.00465852 0
-0.0163679 -0.0100918 0
-0.0190632 -0.0152511 0
-0.0227546 -0.017632 0
-0.0255405 -0.0199089 0
0 0 0
0 0 0
0 0 0
0 0 0
0 0 0
0 0 0
0 0 0
0 0 0
0 0 0
0 0 0
0 0 0
0 0 0
0 0 0
0 0 0
0 0 0
-0.000891165 0.00402995 0
-0.0027724 0.0079589 0
-0.00611504 0.0115469 0
-0.0128105 0.0160051 0
-0.00791487 0.0205027 0
-0.0127977 0.0198407 0
-0.0191223 0.0198538 0
-0.00036247 0.0020025 0
-0.00169036 0.00607738 0
-0.00420574 0.00992585 0
-0.00908377 0.013756 0
-0.00912225 0.0189372 0
-0.00996052 0.0202309 0
-0.0157648 0.0197798 0
-0.0227142 0.0201979 0
-0.0337731 0.0214618 0
-0.0389239 0.021139 0
-0.0421712 0.0197959 0
-0.0453013 0.018244 0
-0.0487312 0.0166468 0
-0.0522938 0.014951 0
-0.0552871 0.0129361 0
-0.0576868 0.0105993 0
-0.0595438 0.00805923 0
-0.0609189 0.00543288 0
-0.0618069 0.00272221 0
-0.0304427 0.021233 0
-0.0365851 0.0214348 0
-0.0407506 0.0205841 0
-0.0437249 0.0190387 0
-0.0469855 0.0174504 0
-0.0505539 0.0158259 0
-0.053857 0.0139799 0
-0.0565579 0.0118066 0
-0.0586744 0.00933933 0
-0.0602921 0.00675647 0
-0.0614259 0.00408671 0
-0.0620347 0.00135659 0
-0.0618206 -0.00275595 0
-0.060944 -0.00549012 0
-0.0595763 -0.00814443 0
-0.0577211 -0.0107159 0
-0.0553206 -0.0130665 0
-0.0523071 -0.0150665 0
-0.0487107 -0.0167324 0
-0.0451962 -0.018408 0
-0.0419197 -0.0201487 0
-0.0384997 -0.0216753 0
-0.0334155 -0.0219633 0
-0.0620417 -0.00138333 0
-0.0614468 -0.00412969 0
-0.0603222 -0.00682612 0
-0.0587104 -0.00943902 0
-0.0565958 -0.0119343 0
-0.0538862 -0.0141106 0
-0.0505676 -0.0159376 0
-0.0469345 -0.0175645 0
-0.0435364 -0.0192649 0
-0.0403488 -0.0210131 0
-0.0361474 -0.0219686 0
-0.0302086 -0.0216433 0
-0.0193314 -0.0200657 0
-0.0129121 -0.0204255 0
-0.00772688 -0.0218038 0
-0.0122176 -0.0178348 0
-0.00556638 -0.0121027 0
-0.00247552 -0.00820394 0
-0.000709276 -0.00410402 0
-0.022846 -0.0203892 0
-0.0159888 -0.0201213 0
-0.00997918 -0.0211515 0
-0.00864387 -0.0205779 0
-0.00820817 -0.0142095 0
-0.00384724 -0.0101626 0
-0.001467 -0.00617646 0
-0.0002688 -0.00203046 0
0 0 0
0 0 0
0 0 0
0 0 0
0 0 0
0 0 0
0 0 0
0 0 0
0 0 0
0 0 0
0 0 0
0 0 0
0 0 0
0 0 0
0 0 0
0 0 0
0 0 0
0 0 0
0 0 0
0 0 0
0 0 0
0 0 0
0 0 0
-0.0289269 0.023428 0
-0.031701 0.0283221 0
-0.0349156 0.0353078 0
-0.0377586 0.042357 0
-0.0400685 0.0489994 0
-0.0420743 0.0554085 0
-0.044677 0.0623188 0
-0.0479041 0.0697551 0
-0.0517258 0.0777345 0
-0.0561102 0.0862638 0
-0.0610633 0.09535 0
-0.027707 0.021806 0
-0.0302463 0.0256091 0
-0.0332589 0.0315875 0
-0.0363871 0.03885 0
-0.0389767 0.0457192 0
-0.0410385 0.0521698 0
-0.0433077 0.0588027 0
-0.0462153 0.0659712 0
-0.0497463 0.0736739 0
-0.0538484 0.0819265 0
-0.0585147 0.0907314 0
-0.0637941 0.10014 0
-0.0287893 -0.0241671 0
-0.0316262 -0.029269 0
-0.0351042 -0.0362308 0
-0.0382584 -0.043312 0
-0.0408296 -0.0500728 0
-0.0430396 -0.0566789 0
-0.0459328 -0.0638408 0
-0.0495572 -0.0715913 0
-0.0538883 -0.0799483 0
-0.0588938 -0.0889416 0
-0.0645774 -0.0985768 0
-0.0276058 -0.022355 0
-0.0301281 -0.0265027 0
-0.0333323 -0.0325953 0
-0.0367561 -0.0398022 0
-0.0396028 -0.0467205 0
-0.0418649 -0.0533203 0
-0.0443962 -0.0601899 0
-0.0476557 -0.0676433 0
-0.0516414 -0.075688 0
-0.0563081 -0.084362 0
-0.0616466 -0.0936703 0
-0.0677165 -0.103679 0
0 0 0
0 0 0
0 0 0
0 0 0
0 0 0
0 0 0
0 0 0
0 0 0
0 0 0
0 0 0
0 0 0
0 0 0
0 0 0
0 0 0
0 0 0
0 0 0
0 0 0
0 0 0
0 0 0
0 0 0
0 0 0
0 0 0
0 0 0
-0.00273589 0.0281792 0
-0.00834162 0.0520398 0
-0.016466 0.0713206 0
-0.0267653 0.0861325 0
-0.0315755 0.0958008 0
-0.042464 0.102631 0
-0.0542416 0.105744 0
-0.00103677 0.0145947 0
-0.00520031 0.0406755 0
-0.0121166 0.0622573 0
-0.0212808 0.0792674 0
-0.0283062 0.0913101 0
-0.0367569 0.0996554 0
-0.0482484 0.104652 0
-0.0603824 0.10589 0
-0.0578892 -0.110076 0
-0.0451742 -0.106969 0
-0.0331286 -0.0997203 0
-0.0269019 -0.0895032 0
-0.0156822 -0.0738697 0
-0.00760349 -0.0536716 0
-0.00230674 -0.0289402 0
-0.0644199 -0.110062 0
-0.0514551 -0.109043 0
-0.038915 -0.103829 0
-0.0291814 -0.094954 0
-0.0207246 -0.0822304 0
-0.0112914 -0.0643464 0
-0.00459835 -0.0418661 0
-0.000808368 -0.0149671 0
0 0 0
0 0 0
0 0 0
0 0 0
0 0 0
0 0 0
0 0 0
0 0 0
0 0 0
0 0 0
0 0 0
0 0 0
0 0 0
0 0 0
0 0 0
0 0 0
0 0 0
0 0 0
0 0 0
0 0 0
0 0 0
0 0 0
0 0 0
-0.0730351 0.115578 0
-0.0800549 0.126748 0
-0.0876649 0.138607 0
-0.0958631 0.151158 0
-0.104526 0.164113 0
-0.113508 0.177172 0
-0.122719 0.190306 0
-0.130042 0.202756 0
-0.134971 0.214335 0
-0.136571 0.22421 0
-0.131243 0.229217 0
-0.0697777 0.110252 0
-0.0764654 0.12107 0
-0.0837828 0.132583 0
-0.0916865 0.144788 0
-0.100144 0.15761 0
-0.108962 0.170615 0
-0.1181 0.183726 0
-0.126621 0.196611 0
-0.13278 0.208643 0
-0.136433 0.219724 0
-0.134694 0.227296 0
-0.125853 0.229834 0
-0.0783811 -0.12022 0
-0.0865087 -0.132258 0
-0.0953377 -0.145081 0
-0.104867 -0.158692 0
-0.114858 -0.1727 0
-0.125082 -0.186717 0
-0.135452 -0.200711 0
-0.143448 -0.213695 0
-0.148387 -0.225373 0
-0.149222 -0.234803 0
-0.141558 -0.237919 0
-0.0746186 -0.1145 0
-0.0823539 -0.126134 0
-0.0908338 -0.138564 0
-0.100009 -0.151779 0
-0.109823 -0.165683 0
-0.119947 -0.179702 0
-0.130339 -0.193749 0
-0.139803 -0.207356 0
-0.146323 -0.219746 0
-0.149732 -0.230802 0
-0.146405 -0.237157 0
-0.134404 -0.237035 0
0 0 0
0 0 0
0 0 0
0 0 0
0 0 0
0 0 0
0 0 0
0 0 0
0 0 0
0 0 0
0 0 0
0 0 0
0 0 0
0 0 0
0 0 0
0 0 0
0 0 0
0 0 0
0 0 0
0 0 0
0 0 0
0 0 0
0 0 0
-0.0139511 0.126138 0
-0.0392336 0.213707 0
-0.0683126 0.264326 0
-0.098673 0.278723 0
-0.108495 0.287078 0
-0.118787 0.27438 0
-0.12233 0.254916 0
-0.00515516 0.0678678 0
-0.0257367 0.174886 0
-0.0537001 0.243468 0
-0.0829608 0.276955 0
-0.103449 0.285834 0
-0.114294 0.281949 0
-0.121392 0.265442 0
-0.121417 0.242844 0
-0.111099 0.201319 0
-0.102101 0.174774 0
-0.0918759 0.149698 0
-0.0818661 0.126815 0
-0.0724394 0.106293 0
-0.0636867 0.0880305 0
-0.0559902 0.0715869 0
-0.0493625 0.0569393 0
-0.043964 0.0436006 0
-0.039944 0.0310644 0
-0.0373018 0.0193074 0
-0.115067 0.215087 0
-0.106707 0.187819 0
-0.0970448 0.161994 0
-0.086772 0.137946 0
-0.0770469 0.116251 0
-0.0679142 0.0969158 0
-0.0596839 0.079574 0
-0.0525251 0.0640328 0
-0.0464773 0.0501686 0
-0.0417689 0.0372366 0
-0.0384382 0.025116 0
-0.0364929 0.0135008 0
-0.036213 -0.00396356 0
-0.0377949 -0.01581 0
-0.0408995 -0.0285254 0
-0.0455343 -0.0421416 0
-0.0516638 -0.0572511 0
-0.0592647 -0.0744613 0
-0.0683363 -0.0938007 0
-0.0787479 -0.11602 0
-0.090459 -0.141324 0
-0.103035 -0.16963 0
-0.114638 -0.200696 0
-0.0359474 0.00187593 0
-0.0368047 -0.00979119 0
-0.0391459 -0.0220582 0
-0.0430128 -0.0352218 0
-0.0483986 -0.0494324 0
-0.0552628 -0.0655864 0
-0.0635984 -0.0838289 0
-0.0733527 -0.104522 0
-0.0844318 -0.128272 0
-0.0967916 -0.155092 0
-0.108916 -0.184776 0
-0.119996 -0.217206 0
-0.131286 -0.266844 0
-0.129575 -0.293398 0
-0.120205 -0.313439 0
-0.109707 -0.309407 0
-0.0756834 -0.296444 0
-0.0429794 -0.241023 0
-0.0149458 -0.142437 0
-0.129179 -0.251369 0
-0.13137 -0.280871 0
-0.125703 -0.304679 0
-0.115053 -0.314632 0
-0.0930658 -0.308261 0
-0.0591223 -0.273641 0
-0.0278471 -0.197299 0
-0.00523127 -0.0766383 0
0 0 0
0 0 0
0 0 0
0 0 0
0 0 0
0 0 0
0 0 0
0 0 0
0 0 0
0 0 0
0 0 0
0 0 0
0 0 0
0 0 0
0 0 0
-0.0918096 0.221168 0
-0.0426421 0.201869 0
0.0292422 0.171821 0
0.137305 0.141857 0
0.284573 0.0939299 0
0.484538 0.0499223 0
0.729378 0.0156923 0
-0.108048 0.226588 0
-0.070009 0.212867 0
-0.0098809 0.187912 0
0.078447 0.156691 0
0.203586 0.117415 0
0.378219 0.0713026 0
0.602008 0.0311046 0
0.86335 0.00517508 0
0.0300957 0.00715649 0
0.114176 0.00620492 0
0.215851 0.00484407 0
0.326769 0.00329817 0
0.474401 0.00201498 0
0.640859 0.000952518 0
0.820259 0.000257261 0
-0.00521468 0.00747417 0
0.0699281 0.00673421 0
0.163059 0.00557467 0
0.27032 0.00408837 0
0.398178 0.00264672 0
0.555511 0.00144938 0
0.729544 0.000555311 0
0.911225 7.81143e-05 0
-0.0926235 -0.222696 0
-0.0363535 -0.200447 0
0.0440831 -0.168123 0
0.158654 -0.137391 0
0.310303 -0.0897135 0
0.507556 -0.0469423 0
0.742681 -0.014702 0
-0.111843 -0.229898 0
-0.0674693 -0.212815 0
0.000584817 -0.185246 0
0.0970793 -0.152456 0
0.228716 -0.113496 0
0.403755 -0.0674053 0
0.621023 -0.028988 0
0.869842 -0.00474246 0
0 0 0
0 0 0
0 0 0
0 0 0
0 0 0
0 0 0
0 0 0
0 0 0
0 0 0
0 0 0
0 0 0
0 0 0
0 0 0
0 0 0
0 0 0
1 0 0
1 0 0
1 0 0
1 0 0
1 0 0
1 0 0
1 0 0
1 0 0
1 0 0
1 0 0
1 0 0
1 0 0
1 0 0
1 0 0
1 0 0
1 0 0
1 0 0
1 0 0
1 0 0
1 0 0
1 0 0
1 0 0
1 0 0
1 0 0
1 0 0
1 0 0
1 0 0
1 0 0
1 0 0
1 0 0
1 0 0
1 0 0
1 0 0
1 0 0
1 0 0
1 0 0
1 0 0
1 0 0
1 0 0
1 0 0
1 0 0
1 0 0
1 0 0
1 0 0
1 0 0
1 0 0
1 0 0
1 0 0
1 0 0
1 0 0
1 0 0
1 0 0
1 0 0
1 0 0
1 0 0
1 0 0
1 0 0
1 0 0
1 0 0
1 0 0
1 0 0
1 0 0
1 0 0
1 0 0
1 0 0
1 0 0
1 0 0
1 0 0
1 0 0
1 0 0
1 0 0
1 0 0
1 0 0
1 0 0
1 0 0
1 0 0
-0.000247822 -0.00010725 0
-0.000345846 0.000192444 0
-0.000429268 0.000701264 0
-0.000484056 0.0013538 0
-0.00044853 0.0020547 0
-0.000387516 0.00268018 0
-0.000542777 0.00325084 0
-0.000488818 0.000105197 0
-0.000905785 0.000656373 0
-0.00128273 0.00155595 0
-0.00154707 0.00279177 0
-0.00153939 0.00425685 0
-0.00121958 0.00561387 0
-0.00153594 0.00665366 0
-0.000946755 0.000277141 0
-0.00174981 0.00112445 0
-0.00253279 0.00237564 0
-0.00324209 0.00413071 0
-0.00355075 0.00652506 0
-0.00268606 0.00912377 0
-0.0019721 0.010423 0
-0.00153088 0.000547456 0
-0.00282436 0.00160053 0
-0.00405685 0.00308951 0
-0.00544993 0.00507381 0
-0.00641932 0.00812337 0
-0.00613081 0.012618 0
-0.0011089 0.0160975 0
-0.00235081 0.000731549 0
-0.00417702 0.00218478 0
-0.00565936 0.00396048 0
-0.0074254 0.00598295 0
-0.00977454 0.00877678 0
-0.0167447 0.00634129 0
-0.00862915 0.0164761 0
-0.00347329 0.000916093 0
-0.00600544 0.00289753 0
-0.00761314 0.00561412 0
-0.00876873 0.00788054 0
-0.0199094 0.00476548 0
-0.0147247 0.012129 0
-0.0123533 0.0170973 0
-0.00482943 0.000909291 0
-0.00842526 0.00300753 0
-0.0110783 0.00680452 0
-0.0116785 0.0128065 0
-0.0151378 0.0127364 0
-0.0163164 0.0155536 0
-0.0176633 0.0178608 0
0.000136109 -6.60774e-05 0
1.28716e-05 -0.000155942 0
-0.000159116 -0.000172389 0
-0.000297826 1.33498e-05 0
-0.000169005 -8.1061e-05 0
-0.00016827 2.81846e-05 0
-0.000382003 0.000427752 0
-0.000171473 0.000167752 0
-0.000182585 0.000318095 0
-0.000456599 0.00101628 0
-0.000193073 0.000490353 0
-0.00019979 0.000665781 0
-0.000472134 0.00171043 0
-0.000197303 0.000850403 0
-0.000186633 0.00101848 0
-0.000415923 0.00238815 0
-0.000179531 0.00117888 0
-0.000174553 0.00130955 0
-0.000429882 0.00294609 0
-0.000193383 0.00144348 0
-0.000241189 0.00158571 0
-0.000673523 0.00358642 0
-0.000291143 0.00176839 0
0.000132082 1.43472e-05 0
0.000167405 -8.95207e-06 0
-0.000326939 3.65947e-05 0
-0.000700856 0.000339334 0
-0.000477525 0.000179458 0
-0.000593608 0.00041996 0
-0.00110421 0.0010603 0
-0.000701476 0.000736065 0
-0.000803068 0.00112337 0
-0.0014328 0.00213305 0
-0.000881443 0.00156908 0
-0.000937403 0.00207083 0
-0.00157904 0.00350819 0
-0.000940452 0.00260232 0
-0.000901013 0.00314655 0
-0.00139655 0.00498918 0
-0.000828082 0.00365447 0
-0.000751288 0.00409687 0
-0.00125085 0.00614441 0
-0.000799541 0.00449107 0
-0.00101597 0.00489545 0
-0.00197142 0.00713565 0
-0.0012654 0.00538656 0
-0.000120978 5.77122e-05 0
3.30505e-05 3.48301e-05 0
-0.000672851 0.000208851 0
-0.00134862 0.000656949 0
-0.000998009 0.000494543 0
-0.00129552 0.00088836 0
-0.00215101 0.00169353 0
-0.00158834 0.00138027 0
-0.00186394 0.00197112 0
-0.00291004 0.00317718 0
-0.0021124 0.00267181 0
-0.00231253 0.00348738 0
-0.0034718 0.00525409 0
-0.00241937 0.00441133 0
-0.00240555 0.00542577 0
-0.00323708 0.00786123 0
-0.00217613 0.00643623 0
-0.00184637 0.0073271 0
-0.00199639 0.0100499 0
-0.00163956 0.0079398 0
-0.00196053 0.00825105 0
-0.00350933 0.0103413 0
-0.00276777 0.00877414 0
-0.000397798 0.000218613 0
-0.000278426 0.000150587 0
-0.0012209 0.000434955 0
-0.00220078 0.00101182 0
-0.00175628 0.000840666 0
-0.00226271 0.00136575 0
-0.00344295 0.00230018 0
-0.00277399 0.00199706 0
-0.00327643 0.00273862 0
-0.00472655 0.0040032 0
-0.00379976 0.00361249 0
-0.00430019 0.00466841 0
-0.00610088 0.00644341 0
-0.00469483 0.00594416 0
-0.00491265 0.00737728 0
-0.00678057 0.00993553 0
-0.00473205 0.00912412 0
-0.00400368 0.0110457 0
-0.00294982 0.0149292 0
-0.00234956 0.0123315 0
-0.00156621 0.0127279 0
-0.00270453 0.0169623 0
-0.00389067 0.0123144 0
-0.000852067 0.000264363 0
-0.000604972 0.000236654 0
-0.00188863 0.000650375 0
-0.0033079 0.00139413 0
-0.0027136 0.00119632 0
-0.00345916 0.00187811 0
-0.00492288 0.00306098 0
-0.00415741 0.00264852 0
-0.00484795 0.00348455 0
-0.00651866 0.00492577 0
-0.00561766 0.00440333 0
-0.00650936 0.00538301 0
-0.00895224 0.007079 0
-0.00749821 0.0066615 0
-0.00813887 0.00816808 0
-0.00941781 0.00952104 0
-0.00915826 0.00915961 0
-0.0094345 0.0127935 0
-0.011995 0.0120134 0
-0.00542728 0.016497 0
-0.00256443 0.019081 0
-0.00746413 0.0191617 0
-0.00251703 0.0205436 0
-0.00148533 0.000316793 0
-0.00114847 0.000290818 0
-0.00285682 0.000838582 0
-0.00484846 0.00178842 0
-0.0040164 0.00159524 0
-0.0050035 0.00253692 0
-0.00690957 0.00418682 0
-0.00580936 0.00359919 0
-0.00653594 0.0047032 0
-0.00811471 0.00693724 0
-0.00730204 0.00570454 0
-0.00835011 0.0064759 0
-0.0107265 0.00819352 0
-0.0110426 0.00709722 0
-0.0129421 0.0102168 0
-0.0171238 0.00867519 0
-0.0104068 0.0127801 0
-0.0153455 0.00940752 0
-0.0132104 0.0148735 0
-0.0120979 0.0136132 0
-0.0101131 0.0168365 0
-0.0121748 0.0187887 0
-0.00939464 0.0190495 0
-0.0022303 0.000304546 0
-0.00185654 0.000322056 0
-0.004134 0.00095452 0
-0.00676893 0.0018058 0
-0.00578728 0.0018703 0
-0.00717511 0.00307085 0
-0.0100257 0.00460713 0
-0.00832318 0.00463357 0
-0.00910502 0.00653275 0
-0.011865 0.00961521 0
-0.00960246 0.00875107 0
-0.00969265 0.0110965 0
-0.0112033 0.014708 0
-0.0104203 0.0121057 0
-0.0167349 0.00938692 0
-0.0156883 0.0143422 0
-0.0157677 0.0120565 0
-0.015117 0.0141071 0
-0.0169415 0.0167952 0
-0.0148159 0.0159199 0
-0.0147919 0.0174866 0
-0.0183406 0.0189314 0
-0.0151171 0.0187606 0
-0.00259666 0.000280148 0
-0.00550042 0.000859071 0
-0.00772646 0.00168699 0
-0.00973395 0.0027914 0
-0.0116262 0.00415648 0
-0.0133911 0.00586448 0
-0.014723 0.00810981 0
-0.0139942 0.0117778 0
-0.0130877 0.0148721 0
-0.0156259 0.0140868 0
-0.0169299 0.0155087 0
-0.0183473 0.0164545 0
-0.0196294 0.0174378 0
-0.0207763 0.0183791 0
-0.0218106 0.0192943 0
-0.00711831 0.000548111 0
-0.0124278 0.0017772 0
-0.0167595 0.00338445 0
-0.0214682 0.0055534 0
-0.0234501 0.0122809 0
-0.0272125 0.016495 0
-0.0306797 0.0195312 0
-0.0080196 0.000531145 0
-0.0140765 0.00180717 0
-0.019205 0.00365009 0
-0.0246665 0.00580162 0
-0.0278481 0.0113609 0
-0.031661 0.0157985 0
-0.0353669 0.0190513 0
-0.00897614 0.000557222 0
-0.0158492 0.00188819 0
-0.0216912 0.00375771 0
-0.027308 0.00565143 0
-0.0310693 0.0110724 0
-0.0346868 0.0146162 0
-0.0383891 0.0175038 0
-0.00995437 0.000550186 0
-0.0176092 0.00184029 0
-0.0240515 0.00359666 0
-0.0298492 0.00533593 0
-0.0340082 0.0105118 0
-0.0375157 0.0133027 0
-0.0412698 0.0158529 0
-0.0108832 0.000504151 0
-0.0192503 0.00167996 0
-0.0262369 0.00325542 0
-0.0324165 0.00488548 0
-0.0368897 0.00949338 0
-0.0404552 0.0119747 0
-0.0443843 0.0143346 0
-0.011715 0.000441378 0
-0.0207131 0.00147536 0
-0.0281951 0.00285857 0
-0.0349243 0.00429589 0
-0.0396538 0.00812589 0
-0.0434129 0.0106145 0
-0.047606 0.0128742 0
-0.012436 0.000376429 0
-0.0219859 0.00126741 0
-0.0299016 0.0024641 0
-0.0370288 0.00368372 0
-0.0420289 0.00681944 0
-0.045969 0.00910078 0
-0.0503668 0.0111303 0
-0.0130438 0.00031063 0
-0.0230628 0.0010522 0
-0.0313394 0.0020543 0
-0.0387133 0.00305479 0
-0.0440025 0.00558303 0
-0.0481064 0.00742783 0
-0.0526454 0.00909189 0
-0.0135315 0.00023823 0
-0.0239292 0.000814072 0
-0.0324958 0.00159738 0
-0.0400328 0.00238841 0
-0.0455609 0.00431698 0
-0.0497937 0.00563395 0
-0.0544316 0.00687443 0
-0.0138873 0.000157893 0
-0.0245624 0.000548609 0
-0.0333466 0.0010829 0
-0.0410344 0.00164893 0
-0.0466883 0.00293061 0
-0.0510011 0.00376937 0
-0.0557209 0.00459822 0
-0.0141007 7.30694e-05 0
-0.0249428 0.000268433 0
-0.0338631 0.000533891 0
-0.0417129 0.000837699 0
-0.0473841 0.00142961 0
-0.0517284 0.00183558 0
-0.0565118 0.00226413 0
-0.00345208 0.000177794 0
-0.00320425 0.000195002 0
-0.00663617 0.000611253 0
-0.00992548 0.00109515 0
-0.00927801 0.00119578 0
-0.0116587 0.00191152 0
-0.0146952 0.00253333 0
-0.0137741 0.00270158 0
-0.0157613 0.00350533 0
-0.018917 0.00444672 0
-0.0175107 0.00435223 0
-0.0196914 0.00520493 0
-0.0221982 0.00927202 0
-0.0198625 0.00969757 0
-0.0208084 0.0130072 0
-0.0252833 0.0146206 0
-0.0225623 0.0150784 0
-0.0244149 0.0166797 0
-0.0289785 0.0181573 0
-0.0260995 0.0181434 0
-0.0276778 0.0193654 0
-0.0322687 0.0206264 0
-0.0291248 0.0203965 0
-0.00393062 0.000169027 0
-0.00369281 0.000166115 0
-0.00755204 0.000534431 0
-0.0112244 0.00108962 0
-0.0105684 0.00107101 0
-0.0132383 0.00176752 0
-0.0167073 0.00266906 0
-0.0156745 0.00259916 0
-0.0179559 0.00356293 0
-0.0217722 0.00479115 0
-0.0203597 0.00466236 0
-0.0231571 0.00570956 0
-0.0261603 0.00873801 0
-0.0242973 0.00893879 0
-0.0257955 0.0117717 0
-0.0297279 0.0137375 0
-0.0276789 0.0141533 0
-0.0296109 0.0161966 0
-0.033521 0.017563 0
-0.0314409 0.0179709 0
-0.0332271 0.0194174 0
-0.03716 0.0202358 0
-0.0349409 0.0205784 0
-0.00443584 0.000177407 0
-0.00418159 0.000172975 0
-0.00847785 0.00055905 0
-0.0125993 0.00114322 0
-0.0119068 0.00112467 0
-0.0149574 0.00186724 0
-0.0188431 0.00277629 0
-0.0177738 0.00275761 0
-0.0204508 0.0037698 0
-0.0244571 0.0048025 0
-0.0231429 0.00485465 0
-0.0260446 0.00576697 0
-0.0292103 0.00860987 0
-0.0277783 0.00864048 0
-0.0295681 0.0111808 0
-0.032866 0.0129481 0
-0.0314297 0.0133344 0
-0.0333097 0.0152411 0
-0.0365289 0.0161388 0
-0.0351727 0.016929 0
-0.0370358 0.0183745 0
-0.0402831 0.0187372 0
-0.03889 0.0195974 0
-0.00495611 0.000175538 0
-0.00469879 0.000176944 0
-0.00945316 0.000571248 0
-0.0139852 0.00112208 0
-0.0132994 0.00114276 0
-0.016738 0.00188264 0
-0.0209312 0.0026808 0
-0.0199015 0.00275276 0
-0.0228831 0.00371239 0
-0.0269912 0.00454661 0
-0.0257401 0.00470158 0
-0.0285782 0.00551289 0
-0.0320262 0.00825523 0
-0.0306277 0.00848921 0