<?xml version="1.0"?>
<VTKFile type="UnstructuredGrid">
  <UnstructuredGrid>
  <Piece NumberOfPoints="3321"  NumberOfCells="1600">
    <Points>
      <DataArray type="Float64" NumberOfComponents="3" format="ascii">
0 0 0.1
1 0 0.1
1 0.5 0.1
0 0.5 0.1
0.025 0 0.1
0.05 0 0.1
0.075 0 0.1
0.1 0 0.1
0.125 0 0.1
0.15 0 0.1
0.175 0 0.1
0.2 0 0.1
0.225 0 0.1
0.25 0 0.1
0.275 0 0.1
0.3 0 0.1
0.325 0 0.1
0.35 0 0.1
0.375 0 0.1
0.4 0 0.1
0.425 0 0.1
0.45 0 0.1
0.475 0 0.1
0.5 0 0.1
0.525 0 0.1
0.55 0 0.1
0.575 0 0.1
0.6 0 0.1
0.625 0 0.1
0.65 0 0.1
0.675 0 0.1
0.7 0 0.1
0.725 0 0.1
0.75 0 0.1
0.775 0 0.1
0.8 0 0.1
0.825 0 0.1
0.85 0 0.1
0.875 0 0.1
0.9 0 0.1
0.925 0 0.1
0.95 0 0.1
0.975 0 0.1
0.0125 0 0.1
0.0375 0 0.1
0.0625 0 0.1
0.0875 0 0.1
0.1125 0 0.1
0.1375 0 0.1
0.1625 0 0.1
0.1875 0 0.1
0.2125 0 0.1
0.2375 0 0.1
0.2625 0 0.1
0.2875 0 0.1
0.3125 0 0.1
0.3375 0 0.1
0.3625 0 0.1
0.3875 0 0.1
0.4125 0 0.1
0.4375 0 0.1
0.4625 0 0.1
0.4875 0 0.1
0.5125 0 0.1
0.5375 0 0.1
0.5625 0 0.1
0.5875 0 0.1
0.6125 0 0.1
0.6375 0 0.1
0.6625 0 0.1
0.6875 0 0.1
0.7125 0 0.1
0.7375 0 0.1
0.7625 0 0.1
0.7875 0 0.1
0.8125 0 0.1
0.8375 0 0.1
0.8625 0 0.1
0.8875 0 0.1
0.9125 0 0.1
0.9375 0 0.1
0.9625 0 0.1
0.9875 0 0.1
1 0.025 0.1
1 0.05 0.1
1 0.075 0.1
1 0.1 0.1
1 0.125 0.1
1 0.15 0.1
1 0.175 0.1
1 0.2 0.1
1 0.225 0.1
1 0.25 0.1
1 0.275 0.1
1 0.3 0.1
1 0.325 0.1
1 0.35 0.1
1 0.375 0.1
1 0.4 0.1
1 0.425 0.1
1 0.45 0.1
1 0.475 0.1
1 0.0125 0.1
1 0.0375 0.1
1 0.0625 0.1
1 0.0875 0.1
1 0.1125 0.1
1 0.1375 0.1
1 0.1625 0.1
1 0.1875 0.1
1 0.2125 0.1
1 0.2375 0.1
1 0.2625 0.1
1 0.2875 0.1
1 0.3125 0.1
1 0.3375 0.1
1 0.3625 0.1
1 0.3875 0.1
1 0.4125 0.1
1 0.4375 0.1
1 0.4625 0.1
1 0.4875 0.1
0.975 0.5 0.1
0.95 0.5 0.1
0.925 0.5 0.1
0.9 0.5 0.1
0.875 0.5 0.1
0.85 0.5 0.1
0.825 0.5 0.1
0.8 0.5 0.1
0.775 0.5 0.1
0.75 0.5 0.1
0.725 0.5 0.1
0.7 0.5 0.1
0.675 0.5 0.1
0.65 0.5 0.1
0.625 0.5 0.1
0.6 0.5 0.1
0.575 0.5 0.1
0.55 0.5 0.1
0.525 0.5 0.1
0.5 0.5 0.1
0.475 0.5 0.1
0.45 0.5 0.1
0.425 0.5 0.1
0.4 0.5 0.1
0.375 0.5 0.1
0.35 0.5 0.1
0.325 0.5 0.1
0.3 0.5 0.1
0.275 0.5 0.1
0.25 0.5 0.1
0.225 0.5 0.1
0.2 0.5 0.1
0.175 0.5 0.1
0.15 0.5 0.1
0.125 0.5 0.1
0.1 0.5 0.1
0.075 0.5 0.1
0.05 0.5 0.1
0.025 0.5 0.1
0.9875 0.5 0.1
0.9625 0.5 0.1
0.9375 0.5 0.1
0.9125 0.5 0.1
0.8875 0.5 0.1
0.8625 0.5 0.1
0.8375 0.5 0.1
0.8125 0.5 0.1
0.7875 0.5 0.1
0.7625 0.5 0.1
0.7375 0.5 0.1
0.7125 0.5 0.1
0.6875 0.5 0.1
0.6625 0.5 0.1
0.6375 0.5 0.1
0.6125 0.5 0.1
0.5875 0.5 0.1
0.5625 0.5 0.1
0.5375 0.5 0.1
0.5125 0.5 0.1
0.4875 0.5 0.1
0.4625 0.5 0.1
0.4375 0.5 0.1
0.4125 0.5 0.1
0.3875 0.5 0.1
0.3625 0.5 0.1
0.3375 0.5 0.1
0.3125 0.5 0.1
0.2875 0.5 0.1
0.2625 0.5 0.1
0.2375 0.5 0.1
0.2125 0.5 0.1
0.1875 0.5 0.1
0.1625 0.5 0.1
0.1375 0.5 0.1
0.1125 0.5 0.1
0.0875 0.5 0.1
0.0625 0.5 0.1
0.0375 0.5 0.1
0.0125 0.5 0.1
0 0.475 0.1
0 0.45 0.1
0 0.425 0.1
0 0.4 0.1
0 0.375 0.1
0 0.35 0.1
0 0.325 0.1
0 0.3 0.1
0 0.275 0.1
0 0.25 0.1
0 0.225 0.1
0 0.2 0.1
0 0.175 0.1
0 0.15 0.1
0 0.125 0.1
0 0.1 0.1
0 0.075 0.1
0 0.05 0.1
0 0.025 0.1
0 0.4875 0.1
0 0.4625 0.1
0 0.4375 0.1
0 0.4125 0.1
0 0.3875 0.1
0 0.3625 0.1
0 0.3375 0.1
0 0.3125 0.1
0 0.2875 0.1
0 0.2625 0.1
0 0.2375 0.1
0 0.2125 0.1
0 0.1875 0.1
0 0.1625 0.1
0 0.1375 0.1
0 0.1125 0.1
0 0.0875 0.1
0 0.0625 0.1
0 0.0375 0.1
0 0.0125 0.1
0.975 0.475 0.1
0.975 0.45 0.1
0.975 0.425 0.1
0.975 0.4 0.1
0.975 0.375 0.1
0.975 0.35 0.1
0.975 0.325 0.1
0.975 0.3 0.1
0.975 0.275 0.1
0.975 0.25 0.1
0.975 0.225 0.1
0.975 0.2 0.1
0.975 0.175 0.1
0.975 0.15 0.1
0.975 0.125 0.1
0.975 0.1 0.1
0.975 0.075 0.1
0.975 0.05 0.1
0.975 0.025 0.1
0.95 0.475 0.1
0.95 0.45 0.1
0.95 0.425 0.1
0.95 0.4 0.1
0.95 0.375 0.1
0.95 0.35 0.1
0.95 0.325 0.1
0.95 0.3 0.1
0.95 0.275 0.1
0.95 0.25 0.1
0.95 0.225 0.1
0.95 0.2 0.1
0.95 0.175 0.1
0.95 0.15 0.1
0.95 0.125 0.1
0.95 0.1 0.1
0.95 0.075 0.1
0.95 0.05 0.1
0.95 0.025 0.1
0.925 0.475 0.1
0.925 0.45 0.1
0.925 0.425 0.1
0.925 0.4 0.1
0.925 0.375 0.1
0.925 0.35 0.1
0.925 0.325 0.1
0.925 0.3 0.1
0.925 0.275 0.1
0.925 0.25 0.1
0.925 0.225 0.1
0.925 0.2 0.1
0.925 0.175 0.1
0.925 0.15 0.1
0.925 0.125 0.1
0.925 0.1 0.1
0.925 0.075 0.1
0.925 0.05 0.1
0.925 0.025 0.1
0.9 0.475 0.1
0.9 0.45 0.1
0.9 0.425 0.1
0.9 0.4 0.1
0.9 0.375 0.1
0.9 0.35 0.1
0.9 0.325 0.1
0.9 0.3 0.1
0.9 0.275 0.1
0.9 0.25 0.1
0.9 0.225 0.1
0.9 0.2 0.1
0.9 0.175 0.1
0.9 0.15 0.1
0.9 0.125 0.1
0.9 0.1 0.1
0.9 0.075 0.1
0.9 0.05 0.1
0.9 0.025 0.1
0.875 0.475 0.1
0.875 0.45 0.1
0.875 0.425 0.1
0.875 0.4 0.1
0.875 0.375 0.1
0.875 0.35 0.1
0.875 0.325 0.1
0.875 0.3 0.1
0.875 0.275 0.1
0.875 0.25 0.1
0.875 0.225 0.1
0.875 0.2 0.1
0.875 0.175 0.1
0.875 0.15 0.1
0.875 0.125 0.1
0.875 0.1 0.1
0.875 0.075 0.1
0.875 0.05 0.1
0.875 0.025 0.1
0.85 0.475 0.1
0.85 0.45 0.1
0.85 0.425 0.1
0.85 0.4 0.1
0.85 0.375 0.1
0.85 0.35 0.1
0.85 0.325 0.1
0.85 0.3 0.1
0.85 0.275 0.1
0.85 0.25 0.1
0.85 0.225 0.1
0.85 0.2 0.1
0.85 0.175 0.1
0.85 0.15 0.1
0.85 0.125 0.1
0.85 0.1 0.1
0.85 0.075 0.1
0.85 0.05 0.1
0.85 0.025 0.1
0.825 0.475 0.1
0.825 0.45 0.1
0.825 0.425 0.1
0.825 0.4 0.1
0.825 0.375 0.1
0.825 0.35 0.1
0.825 0.325 0.1
0.825 0.3 0.1
0.825 0.275 0.1
0.825 0.25 0.1
0.825 0.225 0.1
0.825 0.2 0.1
0.825 0.175 0.1
0.825 0.15 0.1
0.825 0.125 0.1
0.825 0.1 0.1
0.825 0.075 0.1
0.825 0.05 0.1
0.825 0.025 0.1
0.8 0.475 0.1
0.8 0.45 0.1
0.8 0.425 0.1
0.8 0.4 0.1
0.8 0.375 0.1
0.8 0.35 0.1
0.8 0.325 0.1
0.8 0.3 0.1
0.8 0.275 0.1
0.8 0.25 0.1
0.8 0.225 0.1
0.8 0.2 0.1
0.8 0.175 0.1
0.8 0.15 0.1
0.8 0.125 0.1
0.8 0.1 0.1
0.8 0.075 0.1
0.8 0.05 0.1
0.8 0.025 0.1
0.775 0.475 0.1
0.775 0.45 0.1
0.775 0.425 0.1
0.775 0.4 0.1
0.775 0.375 0.1
0.775 0.35 0.1
0.775 0.325 0.1
0.775 0.3 0.1
0.775 0.275 0.1
0.775 0.25 0.1
0.775 0.225 0.1
0.775 0.2 0.1
0.775 0.175 0.1
0.775 0.15 0.1
0.775 0.125 0.1
0.775 0.1 0.1
0.775 0.075 0.1
0.775 0.05 0.1
0.775 0.025 0.1
0.75 0.475 0.1
0.75 0.45 0.1
0.75 0.425 0.1
0.75 0.4 0.1
0.75 0.375 0.1
0.75 0.35 0.1
0.75 0.325 0.1
0.75 0.3 0.1
0.75 0.275 0.1
0.75 0.25 0.1
0.75 0.225 0.1
0.75 0.2 0.1
0.75 0.175 0.1
0.75 0.15 0.1
0.75 0.125 0.1
0.75 0.1 0.1
0.75 0.075 0.1
0.75 0.05 0.1
0.75 0.025 0.1
0.725 0.475 0.1
0.725 0.45 0.1
0.725 0.425 0.1
0.725 0.4 0.1
0.725 0.375 0.1
0.725 0.35 0.1
0.725 0.325 0.1
0.725 0.3 0.1
0.725 0.275 0.1
0.725 0.25 0.1
0.725 0.225 0.1
0.725 0.2 0.1
0.725 0.175 0.1
0.725 0.15 0.1
0.725 0.125 0.1
0.725 0.1 0.1
0.725 0.075 0.1
0.725 0.05 0.1
0.725 0.025 0.1
0.7 0.475 0.1
0.7 0.45 0.1
0.7 0.425 0.1
0.7 0.4 0.1
0.7 0.375 0.1
0.7 0.35 0.1
0.7 0.325 0.1
0.7 0.3 0.1
0.7 0.275 0.1
0.7 0.25 0.1
0.7 0.225 0.1
0.7 0.2 0.1
0.7 0.175 0.1
0.7 0.15 0.1
0.7 0.125 0.1
0.7 0.1 0.1
0.7 0.075 0.1
0.7 0.05 0.1
0.7 0.025 0.1
0.675 0.475 0.1
0.675 0.45 0.1
0.675 0.425 0.1
0.675 0.4 0.1
0.675 0.375 0.1
0.675 0.35 0.1
0.675 0.325 0.1
0.675 0.3 0.1
0.675 0.275 0.1
0.675 0.25 0.1
0.675 0.225 0.1
0.675 0.2 0.1
0.675 0.175 0.1
0.675 0.15 0.1
0.675 0.125 0.1
0.675 0.1 0.1
0.675 0.075 0.1
0.675 0.05 0.1
0.675 0.025 0.1
0.65 0.475 0.1
0.65 0.45 0.1
0.65 0.425 0.1
0.65 0.4 0.1
0.65 0.375 0.1
0.65 0.35 0.1
0.65 0.325 0.1
0.65 0.3 0.1
0.65 0.275 0.1
0.65 0.25 0.1
0.65 0.225 0.1
0.65 0.2 0.1
0.65 0.175 0.1
0.65 0.15 0.1
0.65 0.125 0.1
0.65 0.1 0.1
0.65 0.075 0.1
0.65 0.05 0.1
0.65 0.025 0.1
0.625 0.475 0.1
0.625 0.45 0.1
0.625 0.425 0.1
0.625 0.4 0.1
0.625 0.375 0.1
0.625 0.35 0.1
0.625 0.325 0.1
0.625 0.3 0.1
0.625 0.275 0.1
0.625 0.25 0.1
0.625 0.225 0.1
0.625 0.2 0.1
0.625 0.175 0.1
0.625 0.15 0.1
0.625 0.125 0.1
0.625 0.1 0.1
0.625 0.075 0.1
0.625 0.05 0.1
0.625 0.025 0.1
0.6 0.475 0.1
0.6 0.45 0.1
0.6 0.425 0.1
0.6 0.4 0.1
0.6 0.375 0.1
0.6 0.35 0.1
0.6 0.325 0.1
0.6 0.3 0.1
0.6 0.275 0.1
0.6 0.25 0.1
0.6 0.225 0.1
0.6 0.2 0.1
0.6 0.175 0.1
0.6 0.15 0.1
0.6 0.125 0.1
0.6 0.1 0.1
0.6 0.075 0.1
0.6 0.05 0.1
0.6 0.025 0.1
0.575 0.475 0.1
0.575 0.45 0.1
0.575 0.425 0.1
0.575 0.4 0.1
0.575 0.375 0.1
0.575 0.35 0.1
0.575 0.325 0.1
0.575 0.3 0.1
0.575 0.275 0.1
0.575 0.25 0.1
0.575 0.225 0.1
0.575 0.2 0.1
0.575 0.175 0.1
0.575 0.15 0.1
0.575 0.125 0.1
0.575 0.1 0.1
0.575 0.075 0.1
0.575 0.05 0.1
0.575 0.025 0.1
0.55 0.475 0.1
0.55 0.45 0.1
0.55 0.425 0.1
0.55 0.4 0.1
0.55 0.375 0.1
0.55 0.35 0.1
0.55 0.325 0.1
0.55 0.3 0.1
0.55 0.275 0.1
0.55 0.25 0.1
0.55 0.225 0.1
0.55 0.2 0.1
0.55 0.175 0.1
0.55 0.15 0.1
0.55 0.125 0.1
0.55 0.1 0.1
0.55 0.075 0.1
0.55 0.05 0.1
0.55 0.025 0.1
0.525 0.475 0.1
0.525 0.45 0.1
0.525 0.425 0.1
0.525 0.4 0.1
0.525 0.375 0.1
0.525 0.35 0.1
0.525 0.325 0.1
0.525 0.3 0.1
0.525 0.275 0.1
0.525 0.25 0.1
0.525 0.225 0.1
0.525 0.2 0.1
0.525 0.175 0.1
0.525 0.15 0.1
0.525 0.125 0.1
0.525 0.1 0.1
0.525 0.075 0.1
0.525 0.05 0.1
0.525 0.025 0.1
0.5 0.475 0.1
0.5 0.45 0.1
0.5 0.425 0.1
0.5 0.4 0.1
0.5 0.375 0.1
0.5 0.35 0.1
0.5 0.325 0.1
0.5 0.3 0.1
0.5 0.275 0.1
0.5 0.25 0.1
0.5 0.225 0.1
0.5 0.2 0.1
0.5 0.175 0.1
0.5 0.15 0.1
0.5 0.125 0.1
0.5 0.1 0.1
0.5 0.075 0.1
0.5 0.05 0.1
0.5 0.025 0.1
0.475 0.475 0.1
0.475 0.45 0.1
0.475 0.425 0.1
0.475 0.4 0.1
0.475 0.375 0.1
0.475 0.35 0.1
0.475 0.325 0.1
0.475 0.3 0.1
0.475 0.275 0.1
0.475 0.25 0.1
0.475 0.225 0.1
0.475 0.2 0.1
0.475 0.175 0.1
0.475 0.15 0.1
0.475 0.125 0.1
0.475 0.1 0.1
0.475 0.075 0.1
0.475 0.05 0.1
0.475 0.025 0.1
0.45 0.475 0.1
0.45 0.45 0.1
0.45 0.425 0.1
0.45 0.4 0.1
0.45 0.375 0.1
0.45 0.35 0.1
0.45 0.325 0.1
0.45 0.3 0.1
0.45 0.275 0.1
0.45 0.25 0.1
0.45 0.225 0.1
0.45 0.2 0.1
0.45 0.175 0.1
0.45 0.15 0.1
0.45 0.125 0.1
0.45 0.1 0.1
0.45 0.075 0.1
0.45 0.05 0.1
0.45 0.025 0.1
0.425 0.475 0.1
0.425 0.45 0.1
0.425 0.425 0.1
0.425 0.4 0.1
0.425 0.375 0.1
0.425 0.35 0.1
0.425 0.325 0.1
0.425 0.3 0.1
0.425 0.275 0.1
0.425 0.25 0.1
0.425 0.225 0.1
0.425 0.2 0.1
0.425 0.175 0.1
0.425 0.15 0.1
0.425 0.125 0.1
0.425 0.1 0.1
0.425 0.075 0.1
0.425 0.05 0.1
0.425 0.025 0.1
0.4 0.475 0.1
0.4 0.45 0.1
0.4 0.425 0.1
0.4 0.4 0.1
0.4 0.375 0.1
0.4 0.35 0.1
0.4 0.325 0.1
0.4 0.3 0.1
0.4 0.275 0.1
0.4 0.25 0.1
0.4 0.225 0.1
0.4 0.2 0.1
0.4 0.175 0.1
0.4 0.15 0.1
0.4 0.125 0.1
0.4 0.1 0.1
0.4 0.075 0.1
0.4 0.05 0.1
0.4 0.025 0.1
0.375 0.475 0.1
0.375 0.45 0.1
0.375 0.425 0.1
0.375 0.4 0.1
0.375 0.375 0.1
[...]
    <PointData>
      <DataArray type="Float64" NumberOfComponents="3" Name="Velocity" format="ascii">
0 0 0
0 0 0
0 0 0
0 0 0
0 0 0
0 0 0
0 0 0
0 0 0
0 0 0
0 0 0
0 0 0
0 0 0
0 0 0
0 0 0
0 0 0
0 0 0
0 0 0
0 0 0
0 0 0
0 0 0
0 0 0
0 0 0
0 0 0
0 0 0
0 0 0
0 0 0
0 0 0
0 0 0
0 0 0
0 0 0
0 0 0
0 0 0
0 0 0
0 0 0
0 0 0
0 0 0
0 0 0
0 0 0
0 0 0
0 0 0
0 0 0
0 0 0
0 0 0
0 0 0
0 0 0
0 0 0
0 0 0
0 0 0
0 0 0
0 0 0
0 0 0
0 0 0
0 0 0
0 0 0
0 0 0
0 0 0
0 0 0
0 0 0
0 0 0
0 0 0
0 0 0
0 0 0
0 0 0
0 0 0
0 0 0
0 0 0
0 0 0
0 0 0
0 0 0
0 0 0
0 0 0
0 0 0
0 0 0
0 0 0
0 0 0
0 0 0
0 0 0
0 0 0
0 0 0
0 0 0
0 0 0
0 0 0
0 0 0
0 0 0
0 0 0
0 0 0
0 0 0
0 0 0
0 0 0
0 0 0
0 0 0
0 0 0
0 0 0
0 0 0
0 0 0
0 0 0
0 0 0
0 0 0
0 0 0
0 0 0
0 0 0
0 0 0
0 0 0
0 0 0
0 0 0
0 0 0
0 0 0
0 0 0
0 0 0
0 0 0
0 0 0
0 0 0
0 0 0
0 0 0
0 0 0
0 0 0
0 0 0
0 0 0
0 0 0
0 0 0
0 0 0
0 0 0
-0.00283133 -0.0420254 0
-0.00995816 -0.0771295 0
-0.0204216 -0.106199 0
-0.0325468 -0.129827 0
-0.046395 -0.148204 0
-0.0615462 -0.160933 0
-0.0766502 -0.168633 0
-0.0915317 -0.171439 0
-0.105862 -0.169778 0
-0.119034 -0.164488 0
-0.130971 -0.155614 0
-0.141502 -0.143802 0
-0.1505 -0.129384 0
-0.158174 -0.112786 0
-0.164446 -0.0948173 0
-0.169225 -0.0755346 0
-0.172665 -0.0554355 0
-0.174678 -0.03492 0
-0.17538 -0.0141891 0
-0.174851 0.00621829 0
-0.173105 0.0263071 0
-0.170217 0.0460169 0
-0.166161 0.0649445 0
-0.160878 0.083027 0
-0.154437 0.0999554 0
-0.146838 0.115451 0
-0.138141 0.129422 0
-0.128408 0.14131 0
-0.117594 0.150881 0
-0.105856 0.157828 0
-0.0933889 0.161689 0
-0.0802037 0.162375 0
-0.0667192 0.159278 0
-0.0534438 0.151839 0
-0.0408098 0.13935 0
-0.0288508 0.1214 0
-0.0181538 0.0982595 0
-0.00920653 0.0698969 0
-0.00312661 0.0361486 0
-0.00124348 -0.0205229 0
-0.00591978 -0.060364 0
-0.0149769 -0.0924052 0
-0.0263382 -0.118738 0
-0.0393291 -0.139754 0
-0.0540038 -0.155366 0
-0.0692008 -0.165549 0
-0.0842172 -0.170809 0
-0.0988963 -0.171295 0
-0.112668 -0.167787 0
-0.125219 -0.160634 0
-0.136468 -0.150201 0
-0.146228 -0.137069 0
-0.154541 -0.121456 0
-0.161533 -0.104113 0
-0.167045 -0.0854781 0
-0.171155 -0.0656993 0
-0.173886 -0.0453925 0
-0.175225 -0.0246959 0
-0.175293 -0.00402404 0
-0.174141 0.0162378 0
-0.171812 0.0362042 0
-0.168344 0.0555621 0
-0.163665 0.0740983 0
-0.157788 0.0916789 0
-0.150762 0.10791 0
-0.142592 0.12271 0
-0.133374 0.135694 0
-0.123088 0.146447 0
-0.111777 0.154782 0
-0.0996771 0.160194 0
-0.0868289 0.162486 0
-0.0734321 0.161371 0
-0.0600107 0.156165 0
-0.0470374 0.146327 0
-0.0346798 0.131083 0
-0.0232864 0.110513 0
-0.0133681 0.084791 0
-0.00569415 0.0537906 0
-0.00293327 0.0169655 0
0 0 0
0 0 0
0 0 0
0 0 0
0 0 0
0 0 0
0 0 0
0 0 0
0 0 0
0 0 0
0 0 0
0 0 0
0 0 0
0 0 0
0 0 0
0 0 0
0 0 0
0 0 0
0 0 0
0 0 0
0 0 0
0 0 0
0 0 0
0 0 0
0 0 0
0 0 0
0 0 0
0 0 0
0 0 0
0 0 0
0 0 0
0 0 0
0 0 0
0 0 0
0 0 0
0 0 0
0 0 0
0 0 0
0 0 0
-0.00445422 -0.0360082 0
-0.00438081 -0.031048 0
-0.00377335 -0.0261228 0
-0.00249069 -0.0221624 0
-0.00187291 -0.0192755 0
-0.00162696 -0.0166374 0
-0.00147839 -0.0141754 0
-0.0013529 -0.0118953 0
-0.00123264 -0.00980083 0
-0.00111299 -0.00789377 0
-0.000991963 -0.00617554 0
-0.000867879 -0.00464928 0
-0.000739007 -0.0033207 0
-0.000603842 -0.00219829 0
-0.000461877 -0.00129289 0
-0.000315159 -0.000616347 0
-0.000169638 -0.000179304 0
-2.90053e-05 2.41286e-05 0
5.9498e-05 5.16699e-05 0
-0.0107532 -0.0663731 0
-0.0106728 -0.0577012 0
-0.00962214 -0.0501147 0
-0.00757242 -0.043518 0
-0.00626788 -0.037823 0
-0.00556876 -0.0325778 0
-0.00506606 -0.0277854 0
-0.00462752 -0.0234057 0
-0.00421243 -0.0194116 0
-0.00380568 -0.0157875 0
-0.00339904 -0.0125261 0
-0.00298598 -0.00962648 0
-0.00256048 -0.00709384 0
-0.00211764 -0.00493784 0
-0.00165532 -0.00317116 0
-0.00117749 -0.00180619 0
-0.000699905 -0.000848137 0
-0.000263357 -0.000278978 0
3.1366e-05 -3.72779e-05 0
-0.0197263 -0.0923602 0
-0.0189819 -0.081027 0
-0.0173809 -0.0711904 0
-0.0149454 -0.0625079 0
-0.0130645 -0.054607 0
-0.011731 -0.0471708 0
-0.0106632 -0.0403538 0
-0.00972042 -0.0341351 0
-0.00883875 -0.0284744 0
-0.00798586 -0.0233418 0
-0.0071419 -0.01872 0
-0.00629191 -0.0146019 0
-0.00542351 -0.0109883 0
-0.00452732 -0.00788582 0
-0.00359971 -0.00530408 0
-0.00264835 -0.00325195 0
-0.00170248 -0.00173061 0
-0.000831897 -0.000723301 0
-0.000177965 -0.000183313 0
-0.0309433 -0.113725 0
-0.0293049 -0.100494 0
-0.0270225 -0.0888644 0
-0.0241838 -0.0784693 0
-0.0217965 -0.068933 0
-0.019753 -0.0598493 0
-0.0179899 -0.0514326 0
-0.0164014 -0.0437101 0
-0.0149149 -0.0366587 0
-0.0134839 -0.030251 0
-0.0120763 -0.0244669 0
-0.0106678 -0.0192952 0
-0.00923886 -0.0147327 0
-0.00777518 -0.0107819 0
-0.00627155 -0.00744897 0
-0.00473865 -0.00474034 0
-0.00321533 -0.00265815 0
-0.00178825 -0.00119479 0
-0.000621424 -0.000325916 0
-0.0438094 -0.130363 0
-0.0412071 -0.11587 0
-0.0382527 -0.102978 0
-0.0349073 -0.0912637 0
-0.0319308 -0.0805618 0
-0.0291772 -0.070309 0
-0.0266776 -0.0607131 0
-0.024369 -0.0518404 0
-0.0221884 -0.0436953 0
-0.0200859 -0.0362633 0
-0.0180221 -0.0295291 0
-0.0159651 -0.0234818 0
-0.0138888 -0.0181162 0
-0.0117742 -0.0134325 0
-0.00961322 -0.00943534 0
-0.00741676 -0.00613163 0
-0.00522652 -0.00352942 0
-0.00313331 -0.00163663 0
-0.00130186 -0.000460048 0
-0.0576895 -0.142314 0
-0.0541241 -0.127167 0
-0.0505833 -0.113554 0
-0.0467202 -0.101017 0
-0.0430497 -0.0895044 0
-0.0395979 -0.0784397 0
-0.0363614 -0.0680248 0
-0.0333059 -0.0583347 0
-0.0303864 -0.0493905 0
-0.0275582 -0.0411908 0
-0.0247804 -0.0337277 0
-0.0220166 -0.0269937 0
-0.0192358 -0.0209846 0
-0.016414 -0.0157009 0
-0.013539 -0.011148 0
-0.0106176 -0.00733687 0
-0.00768692 -0.00428507 0
-0.00482917 -0.00201913 0
-0.00219059 -0.000576903 0
-0.0719704 -0.149742 0
-0.0675421 -0.134436 0
-0.0634902 -0.120568 0
-0.0591827 -0.107694 0
-0.0548232 -0.0957391 0
-0.0506735 -0.0841934 0
-0.0467085 -0.0732834 0
-0.0429065 -0.063084 0
-0.0392365 -0.0536233 0
-0.0356618 -0.044909 0
-0.0321434 -0.0369407 0
-0.0286435 -0.0297158 0
-0.0251273 -0.0232332 0
-0.021566 -0.017496 0
-0.0179411 -0.0125132 0
-0.0142516 -0.00830187 0
-0.0105228 -0.00489096 0
-0.00681789 -0.0023256 0
-0.00325133 -0.000670683 0
-0.086151 -0.152767 0
-0.0809952 -0.137755 0
-0.0765236 -0.12405 0
-0.0718519 -0.111236 0
-0.0668873 -0.0992319 0
-0.0620733 -0.087554 0
-0.0574078 -0.076462 0
-0.0528815 -0.0660437 0
-0.0484752 -0.056335 0
-0.0441601 -0.0473511 0
-0.0399011 -0.0390984 0
-0.0356606 -0.03158 0
-0.031401 -0.0247996 0
-0.0270885 -0.0187643 0
-0.0226967 -0.0134885 0
-0.0182131 -0.0089967 0
-0.0136455 -0.00532923 0
-0.00903085 -0.00254779 0
-0.00444314 -0.000738866 0
-0.0997885 -0.15186 0
-0.0940734 -0.137486 0
-0.0893103 -0.124266 0
-0.0843618 -0.111817 0
-0.0788898 -0.100071 0
-0.0734804 -0.0885711 0
-0.0681664 -0.0775896 0
-0.062959 -0.0672246 0
-0.0578519 -0.0575203 0
-0.0528244 -0.0484996 0
-0.0478465 -0.040176 0
-0.0428815 -0.0325585 0
-0.03789 -0.0256563 0
-0.0328326 -0.0194818 0
-0.0276739 -0.0140553 0
-0.022387 -0.0094089 0
-0.0169586 -0.00559317 0
-0.0113942 -0.00268307 0
-0.00572295 -0.000780813 0
-0.112592 -0.147489 0
-0.106493 -0.133962 0
-0.101573 -0.121466 0
-0.096441 -0.109627 0
-0.0905388 -0.0984066 0
-0.0846087 -0.0873594 0
-0.0787149 -0.0767514 0
-0.0728873 -0.0666873 0
-0.067132 -0.0572197 0
-0.0614378 -0.0483795 0
-0.0557799 -0.0401868 0
-0.0501236 -0.032657 0
-0.0444279 -0.0258047 0
-0.0386478 -0.0196482 0
-0.0327378 -0.0142132 0
-0.0266551 -0.00953893 0
-0.0203629 -0.00568391 0
-0.013833 -0.00273258 0
-0.00704771 -0.000797024 0
-0.124347 -0.139898 0
-0.118024 -0.12742 0
-0.113062 -0.115867 0
-0.107822 -0.104891 0
-0.101567 -0.0944462 0
-0.0952049 -0.0840879 0
-0.0888135 -0.0740799 0
-0.082439 -0.0645346 0
-0.0761014 -0.0555122 0
-0.0697989 -0.0470502 0
-0.0635132 -0.0391752 0
-0.0572122 -0.0319083 0
-0.0508534 -0.0252694 0
-0.0443864 -0.0192816 0
-0.0377551 -0.0139759 0
-0.0309003 -0.00939683 0
-0.0237605 -0.0056083 0
-0.0162737 -0.00270012 0
-0.00837586 -0.000788751 0
-0.134873 -0.129653 0
-0.128485 -0.118349 0
-0.123571 -0.107889 0
-0.118281 -0.0979529 0
-0.111764 -0.0884529 0
-0.105061 -0.0789639 0
-0.0982576 -0.0697425 0
-0.0914155 -0.0609017 0
-0.0845684 -0.0525062 0
-0.0777249 -0.0445986 0
-0.0708731 -0.0372102 0
-0.0639841 -0.0303668 0
-0.0570143 -0.0240925 0
-0.0499079 -0.0184146 0
-0.0425986 -0.0133679 0
-0.0350105 -0.00899988 0
-0.0270584 -0.00537738 0
-0.0186469 -0.00259142 0
-0.0096684 -0.00075778 0
-0.144008 -0.117052 0
-0.137734 -0.107117 0
-0.132957 -0.0978754 0
-0.127666 -0.0891025 0
-0.120973 -0.0806842 0
-0.114011 -0.0722102 0
-0.106877 -0.0639266 0
-0.0996468 -0.0559451 0
-0.0923661 -0.0483318 0
-0.0850534 -0.0411318 0
-0.0777036 -0.0343792 0
-0.0702907 -0.028103 0
-0.0627705 -0.0223302 0
-0.0550824 -0.0170907 0
-0.0471499 -0.0124212 0
-0.0388817 -0.00837063 0
-0.0301699 -0.00500523 0
-0.0208885 -0.00241357 0
-0.0108896 -0.000706279 0
-0.151677 -0.10239 0
-0.145613 -0.0939827 0
-0.141098 -0.0861307 0
-0.135856 -0.0786325 0
-0.129065 -0.0714 0
-0.121921 -0.0640543 0
-0.114533 -0.0568295 0
-0.106991 -0.0498342 0
-0.0993517 -0.0431329 0
-0.0916436 -0.0367707 0
-0.0838673 -0.0307827 0
-0.0759999 -0.025199 0
-0.0679968 -0.0200481 0
-0.0597926 -0.0153608 0
-0.0513021 -0.011174 0
-0.0424197 -0.0075354 0
-0.0330172 -0.0045081 0
-0.022941 -0.00217467 0
-0.0120078 -0.00063668 0
-0.157923 -0.0862711 0
-0.152082 -0.0794146 0
-0.147892 -0.0730217 0
-0.142773 -0.0668547 0
-0.135949 -0.0608618 0
-0.128688 -0.0547238 0
-0.121114 -0.0486519 0
-0.113331 -0.0427446 0
-0.105406 -0.0370615 0
-0.097376 -0.0316453 0
-0.0892466 -0.0265299 0
-0.0809974 -0.021745 0
-0.0725835 -0.0173189 0
-0.0639358 -0.0132815 0
-0.0549614 -0.00966812 0
-0.0455421 -0.00652308 0
-0.0355321 -0.00390367 0
-0.0247545 -0.00188345 0
-0.0129954 -0.000551588 0
-0.162796 -0.0689505 0
-0.157179 -0.063701 0
-0.153305 -0.0587841 0
-0.148383 -0.0539983 0
-0.141563 -0.0493032 0
-0.134233 -0.0444391 0
-0.126531 -0.0395941 0
-0.118572 -0.0348547 0
-0.110432 -0.030274 0
-0.102152 -0.0258904 0
-0.0937435 -0.0217352 0
-0.0851873 -0.0178359 0
-0.0764386 -0.0142191 0
-0.0674253 -0.0109125 0
-0.0580481 -0.00794785 0
-0.0481787 -0.0053641 0
-0.037657 -0.00321049 0
-0.0262866 -0.00154901 0
-0.0138292 -0.000453706 0
-0.166351 -0.0507965 0
-0.160964 -0.0471692 0
-0.157364 -0.0437101 0
-0.152629 -0.0403157 0
-0.145846 -0.0369596 0
-0.138492 -0.0334191 0
-0.130717 -0.0298556 0
-0.122644 -0.0263436 0
-0.114354 -0.0229285 0
-0.105895 -0.0196433 0
-0.0972801 -0.0165154 0
-0.0884927 -0.0135692 0
-0.0794876 -0.0108279 0
-0.0701907 -0.00831544 0
-0.0604977 -0.00605876 0
-0.0502729 -0.00408971 0
-0.0393451 -0.00244753 0
-0.0275034 -0.00118061 0
-0.0144909 -0.000345771 0
-0.16864 -0.0321721 0
-0.163484 -0.0301172 0
-0.160094 -0.028095 0
-0.155501 -0.026085 0
-0.148767 -0.0240748 0
-0.141423 -0.0218826 0
-0.133623 -0.0196345 0
-0.125493 -0.0173891 0
-0.117118 -0.0151824 0
-0.108547 -0.0130414 0
-0.0997983 -0.0109883 0
-0.0908556 -0.00904306 0
-0.0816741 -0.00722475 0
-0.0721783 -0.00555248 0
-0.0622611 -0.00404685 0
-0.0517815 -0.00273136 0
-0.0405611 -0.00163384 0
-0.0283792 -0.000787539 0
-0.0149664 -0.00023051 0
-0.169691 -0.0132556 0
-0.16473 -0.012722 0
-0.161472 -0.0121398 0
-0.156981 -0.0115297 0
-0.150307 -0.010877 0
-0.143005 -0.0100431 0
-0.135223 -0.00912523 0
-0.127088 -0.00816602 0
-0.118687 -0.0071914 0
-0.110071 -0.0062207 0
-0.101259 -0.00527037 0
-0.092237 -0.00435522 0
-0.0829597 -0.00348914 0
-0.0733517 -0.00268552 0
-0.0633045 -0.00195785 0
-0.0526748 -0.00132029 0
-0.0412808 -0.000788289 0
-0.0288965 -0.000378941 0
-0.0152465 -0.000110607 0
-0.169474 0.00559492 0
-0.16465 0.00469088 0
-0.161467 0.00386077 0
-0.15706 0.00309634 0
-0.150464 0.00241097 0
-0.143231 0.00189483 0
-0.135506 0.00148444 0
-0.127415 0.00115516 0
-0.119045 0.00089247 0
-0.110449 0.000685207 0
-0.101643 0.000523427 0
-0.0926165 0.000398003 0
-0.0833241 0.000300694 0
-0.0736911 0.000224353 0
-0.0636097 0.000163136 0
-0.052937 0.000112732 0
-0.0414912 7.05957e-05 0
-0.0290462 3.62095e-05 0
-0.0153263 1.13173e-05 0
-0.167953 0.024191 0
-0.163207 0.0218951 0
-0.160092 0.0196909 0
-0.155763 0.0175871 0
-0.149255 0.0155861 0
-0.142114 0.0137373 0
-0.134481 0.0120136 0
-0.12648 0.0104091 0
-0.118196 0.0089208 0
-0.10968 0.00754576 0
-0.10095 0.00628067 0
-0.0919921 0.00512223 0
-0.0827645 0.00406802 0
-0.0731937 0.00311728 0
-0.0631739 0.00227195 0
-0.0525655 0.00153764 0
-0.0411903 0.000924717 0
-0.028827 0.000449178 0
-0.0152052 0.000132719 0
-0.165115 0.0424048 0
-0.160404 0.0387502 0
-0.157361 0.035193 0
-0.153101 0.0317593 0
-0.146697 0.0284545 0
-0.139672 0.0252955 0
-0.132168 0.0222857 0
-0.124303 0.0194344 0
-0.11616 0.0167488 0
-0.107785 0.0142335 0
-0.0991957 0.0118916 0
-0.0903799 0.00972534 0
-0.0812959 0.00773795 0
-0.0718728 0.00593486 0
-0.0620092 0.00432552 0
-0.0515708 0.00292513 0
-0.0403869 0.00175647 0
-0.0282454 0.000851479 0
-0.014887 0.000251133 0
-0.161019 0.0598877 0
-0.156323 0.0549452 0
-0.153304 0.0500971 0
-0.149102 0.0453728 0
-0.142818 0.040805 0
-0.135941 0.0363776 0
-0.128605 0.0321254 0
-0.120923 0.0280723 0
-0.112973 0.0242346 0
-0.104799 0.0206241 0
-0.0964168 0.0172492 0
-0.0878138 0.0141176 0
-0.0789499 0.0112376 0
-0.069758 0.00862027 0
-0.0601423 0.00628198 0
-0.0499764 0.00424671 0
-0.0391004 0.00254875 0
-0.0273155 0.00123488 0
-0.0143794 0.000364167 0
-0.15571 0.0765043 0
-0.151028 0.0702806 0
-0.147976 0.0641696 0
-0.14382 0.0582001 0
-0.137674 0.0524256 0
-0.130975 0.0467912 0
-0.123846 0.0413589 0
-0.116394 0.0361667 0
-0.108691 0.0312398 0
-0.100777 0.026596 0
-0.0926661 0.0222494 0
-0.0843447 0.0182119 0
-0.0757752 0.0144962 0
-0.0668945 0.0111184 0
-0.0576142 0.00810068 0
-0.0478181 0.00547473 0
-0.03736 0.00328495 0
-0.0260589 0.00159138 0
-0.0136942 0.0004695 0
-0.149209 0.0919952 0
-0.144541 0.0845068 0
-0.141427 0.0771604 0
-0.13732 0.0700128 0
-0.131333 0.0631096 0
-0.124844 0.0563481 0
-0.117963 0.049816 0
-0.110789 0.0435649 0
-0.103387 0.0376288 0
-0.0957913 0.0320314 0
-0.0880137 0.0267911 0
-0.0800405 0.0219236 0
-0.0718361 0.0174452 0
-0.0633425 0.0133758 0
-0.0544797 0.00974226 0
-0.0451439 0.00658239 0
-0.0352052 0.00394896 0
-0.0245042 0.00191319 0
-0.0128471 0.000564867 0
-0.14157 0.10609 0
-0.136903 0.0973719 0
-0.133732 0.0888445 0
-0.129698 0.0806038 0
-0.123888 0.0726629 0
-0.117638 0.0648676 0
-0.111046 0.0573311 0
-0.104198 0.0501183 0
-0.097149 0.0432703 0
-0.0899295 0.0368159 0
-0.0825461 0.0307768 0
-0.0749849 0.0251715 0
-0.0672124 0.0200188 0
-0.0591767 0.0153412 0
-0.0508069 0.0111688 0
-0.0420131 0.00754379 0
-0.0326848 0.00452513 0
-0.0226871 0.00219276 0
-0.0118574 0.000648054 0
-0.132817 0.118637 0
-0.128164 0.108706 0
-0.124972 0.0990621 0
-0.121035 0.0897966 0
-0.115431 0.0808984 0
-0.109459 0.0721722 0
-0.1032 0.063743 0
-0.0967266 0.0556826 0
-0.0900847 0.0480375 0
-0.0832969 0.0408396 0
-0.076366 0.034113 0
-0.0692769 0.0278777 0
-0.0619987 0.022154 0
-0.0544851 0.0169654 0
-0.0466759 0.0123439 0
-0.0384962 0.00833401 0
-0.0298564 0.00499836 0
-0.0206495 0.00242272 0
-0.0107483 0.000716889 0
-0.123019 0.12921 0
-0.118424 0.118173 0
-0.115259 0.107529 0
-0.111431 0.0973492 0
-0.106075 0.0876145 0
-0.100425 0.0780849 0
-0.0945472 0.0688939 0
-0.0884995 0.0601188 0
-0.0823171 0.051809 0
-0.076015 0.0439983 0
-0.0695915 0.0367116 0
-0.0630304 0.0299693 0
-0.0563028 0.0237917 0
-0.0493688 0.0182024 0
-0.0421786 0.0132334 0
-0.0346736 0.00892937 0
-0.0267864 0.00535414 0
-0.0184402 0.00259591 0
-0.00954624 0.000769238 0
-0.112285 0.137586 0
-0.107829 0.125538 0
-0.10473 0.114011 0
-0.101033 0.103045 0
-0.0959651 0.0926172 0
-0.0906815 0.0824336 0
-0.0852318 0.0726326 0
-0.0796594 0.0632952 0
-0.0739871 0.0544717 0
-0.0682214 0.0461958 0
-0.062356 0.0384918 0
-0.0563729 0.0313795 0
-0.0502456 0.024878 0
-0.0439401 0.01901 0
-0.0374175 0.0138056 0
-0.0306352 0.00930784 0
-0.023549 0.00557878 0
-0.0161134 0.00270547 0
-0.00828119 0.000803008 0
-0.100744 0.143507 0
-0.0965338 0.130564 0
-0.0935488 0.118296 0
-0.0900008 0.106699 0
-0.0852641 0.0957277 0
-0.0803918 0.0850551 0
-0.0754185 0.0748171 0
-0.0703691 0.0650905 0
-0.0652535 0.0559231 0
-0.0600698 0.0473463 0
-0.0548065 0.0393827 0
-0.0494445 0.0320502 0
-0.0439589 0.0253664 0
-0.0383216 0.0193514 0
-0.0325038 0.0140327 0
-0.0264787 0.0094497 0
-0.0202251 0.00565974 0
-0.013729 0.00274495 0
-0.00698623 0.000816167 0
-0.0886137 0.146551 0
-0.0847698 0.132919 0
-0.0819345 0.120121 0
-0.0785344 0.108084 0
-0.0741607 0.096757 0
-0.0697471 0.0857938 0
-0.0652959 0.0753189 0
-0.060812 0.0653993 0
-0.0562928 0.0560767 0
-0.0517286 0.0473792 0
-0.0471034 0.0393267 0
-0.0423963 0.0319352 0
-0.0375842 0.0252197 0
-0.0326439 0.0191976 0
-0.0275561 0.0138926 0
-0.0223085 0.00933867 0
-0.0169012 0.00558624 0
-0.0113513 0.00270851 0
-0.00569727 0.000806783 0
-0.0761582 0.146527 0
-0.0728092 0.132408 0
-0.0701233 0.119281 0
-0.0668587 0.106992 0
-0.062886 0.0955314 0
-0.0589725 0.0845155 0
-0.0550788 0.0740337 0
-0.0511917 0.0641391 0
-0.0472977 0.0548675 0
-0.0433798 0.0462435 0
-0.0394174 0.0382844 0
-0.0353881 0.0310038 0
-0.0312697 0.0244141 0
-0.0270434 0.0185299 0
-0.0226976 0.0133704 0
-0.0182327 0.00896349 0
-0.0136678 0.00535019 0
-0.00904794 0.00259135 0
-0.00445255 0.000773098 0
-0.0637156 0.14306 0
-0.0609117 0.128743 0
-0.0583332 0.115519 0
-0.0552252 0.103237 0
-0.0517101 0.0919272 0
-0.0483211 0.0811301 0
-0.0450019 0.0708928 0
-0.0417275 0.0612581 0
-0.0384738 0.052258 0
-0.0352157 0.0439135 0
-0.0319276 0.0362391 0
-0.0285853 0.0292456 0
-0.0251675 0.0229434 0
-0.0216588 0.017344 0
-0.0180533 0.0124625 0
-0.0143612 0.00832021 0
-0.0106167 0.0049477 0
-0.00688842 0.00239035 0
-0.00329186 0.000713676 0
-0.0516464 0.135686 0
-0.0493316 0.121592 0
-0.046825 0.108658 0
-0.043956 0.096749 0
-0.0409245 0.0859063 0
-0.0380537 0.0756037 0
-0.0353074 0.0658689 0
-0.0326475 0.0567401 0
-0.0300351 0.0482434 0
-0.027435 0.0403942 0
-0.0248169 0.0332024 0
-0.0221553 0.0266761 0
-0.0194297 0.0208236 0
-0.0166269 0.0156542 0
-0.0137452 0.0111799 0
-0.0108007 0.00741558 0
-0.00783765 0.00438129 0
-0.00494136 0.00210525 0
-0.00225538 0.000627676 0
-0.0401677 0.124033 0
-0.0383728 0.110804 0
-0.0359505 0.0987243 0
-0.0333334 0.0875975 0
-0.0307722 0.0774859 0
-0.0284114 0.067935 0
-0.0262362 0.0589675 0
-0.0241848 0.0506041 0
-0.0222005 0.0428555 0
-0.0202395 0.0357264 0
-0.0182687 0.0292205 0
-0.0162627 0.0233426 0
-0.0142028 0.0180996 0
-0.0120776 0.0135001 0
-0.00988718 0.00955406 0
-0.00764991 0.00627168 0
-0.00541349 0.00366349 0
-0.00327089 0.00174062 0
-0.00138171 0.000515407 0
-0.0294925 0.108005 0
-0.02834 0.0962948 0
-0.0260469 0.0855926 0
-0.0235777 0.0756814 0
-0.0214665 0.0666125 0
-0.0196382 0.0581193 0
-0.0180401 0.0502215 0
-0.0165814 0.0429091 0
-0.0151937 0.0361694 0
-0.013831 0.0299941 0
-0.0124622 0.0243805 0
-0.0110648 0.0193309 0
-0.00962308 0.0148522 0
-0.00812752 0.0109534 0
-0.00657836 0.00764429 0
-0.00499215 0.00493278 0
-0.00341316 0.00282235 0
-0.00193075 0.00130935 0
-0.000704663 0.00037954 0
-0.0197787 0.0876387 0
-0.0193519 0.077995 0
-0.0173406 0.0690483 0
-0.014997 0.0607841 0
-0.0133151 0.0532065 0
-0.0120387 0.0461814 0
-0.011005 0.039715 0
-0.0100959 0.0337694 0
-0.00924387 0.0283141 0
-0.00840999 0.0233323 0
-0.00757023 0.0188181 0
-0.00670823 0.0147736 0
-0.00581226 0.0112066 0
-0.00487503 0.00812757 0
-0.00389604 0.00554775 0
-0.00288703 0.00347519 0
-0.00188234 0.00191021 0
-0.000955743 0.000839552 0
-0.000246 0.000226753 0
-0.0114649 0.0630419 0
-0.0115539 0.0560608 0
-0.0099799 0.0491865 0
-0.00794999 0.0429449 0
-0.00672935 0.0373554 0
-0.00598841 0.0322686 0
-0.00545354 0.0276273 0
-0.00500256 0.0233764 0
-0.00458426 0.0194837 0
-0.00417429 0.0159342 0
-0.00375885 0.0127242 0
-0.00332859 0.00985735 0
-0.00287651 0.00734206 0
-0.00239777 0.00518997 0
-0.0018911 0.00341349 0
-0.00136231 0.0020223 0
-0.000831846 0.00101758 0
-0.000349124 0.000384634 0
-1.0094e-05 8.06856e-05 0
-0.00525076 0.0344539 0
-0.00510233 0.0306513 0
-0.00407074 0.0262316 0
-0.00280526 0.0224782 0
-0.002162 0.0194086 0
-0.00188122 0.0167128 0